chemcompute.org
{'UTCtimestamp': '2022-12-20T19:56:05.742692', 'cluster': 'jetstream2', 'clusterJobNumber': '169777', 'status': 'RUNNING', 'nodeList': 'chemcompute-node-0'}
----- GAMESS execution script 'rungms' -----
This job is running on host chemcompute-node-0.novalocal
under operating system Linux at Tue Dec 20 19:56:09 UTC 2022
SLURM has assigned the following compute nodes to this run:
Available scratch disk space (Kbyte units) at beginning of the job is
Filesystem     1K-blocks     Used Available Use% Mounted on
/dev/sda4       61775852 12344612  49431240  20% /
GAMESS temporary binary files will be written to /scratch/169777
GAMESS supplementary output files will be written to /data/slurm/51/518189
Copying input file 518189.inp to your run's scratch directory...
The generated host list is
chemcompute-node-0.novalocal

 Distributed Data Interface kickoff program.
 Initiating 1 compute processes on 1 nodes to run the following command:
 /data/gamess-2019R1-avx2-ddi/gamess.00.x 518189 

          ******************************************************
          *         GAMESS VERSION = 30 JUN 2019 (R1)          *
          *             FROM IOWA STATE UNIVERSITY             *
          * M.W.SCHMIDT, K.K.BALDRIDGE, J.A.BOATZ, S.T.ELBERT, *
          *   M.S.GORDON, J.H.JENSEN, S.KOSEKI, N.MATSUNAGA,   *
          *          K.A.NGUYEN, S.J.SU, T.L.WINDUS,           *
          *       TOGETHER WITH M.DUPUIS, J.A.MONTGOMERY       *
          *         J.COMPUT.CHEM.  14, 1347-1363(1993)        *
          **************** 64 BIT INTEL VERSION ****************

  SINCE 1993, STUDENTS AND POSTDOCS WORKING AT IOWA STATE UNIVERSITY
  AND ALSO IN THEIR VARIOUS JOBS AFTER LEAVING ISU HAVE MADE IMPORTANT
  CONTRIBUTIONS TO THE CODE:
     IVANA ADAMOVIC, CHRISTINE AIKENS, YURI ALEXEEV, POOJA ARORA,
     ANDREY ASADCHEV, ROB BELL, PRADIPTA BANDYOPADHYAY, JONATHAN BENTZ,
     COLLEEN BERTONI, BRETT BODE, KURT BRORSEN, CALEB CARLIN, GALINA CHABAN,
     WEI CHEN, CHEOL HO CHOI, PAUL DAY, ALBERT DEFUSCO, NUWAN DESILVA,
     TIM DUDLEY, DMITRI FEDOROV, ALEX FINDLATER, GRAHAM FLETCHER, 
     MARK FREITAG, KURT GLAESEMANN, ANASTASIA GUNINA,
     DAN KEMP, GRANT MERRILL, NORIYUKI MINEZAWA, JONATHAN MULLIN,
     TAKESHI NAGATA, SEAN NEDD, HEATHER NETZLOFF, BOSILJKA NJEGIC, RYAN OLSON,
     MIKE PAK, BUU PHAM,
     SPENCER PRUITT, LUKE ROSKOP, JIM SHOEMAKER, LYUDMILA SLIPCHENKO,
     TONY SMITH, SAROM SOK LEANG, JIE SONG, TETSUYA TAKETSUGU, SIMON WEBB,
     PENG XU, SOOHAENG YOO, FEDERICO ZAHARIEV

  ADDITIONAL CODE HAS BEEN PROVIDED BY COLLABORATORS IN OTHER GROUPS:
     IOWA STATE UNIVERSITY:
          JOE IVANIC, AARON WEST, LAIMUTIS BYTAUTAS, KLAUS RUEDENBERG
     UNIVERSITY OF TOKYO: KIMIHIKO HIRAO, TAKAHITO NAKAJIMA,
          TAKAO TSUNEDA, MUNEAKI KAMIYA, SUSUMU YANAGISAWA,
          KIYOSHI YAGI, MAHITO CHIBA, SEIKEN TOKURA, NAOAKI KAWAKAMI
     UNIVERSITY OF AARHUS: FRANK JENSEN
     UNIVERSITY OF IOWA: VISVALDAS KAIRYS, HUI LI
     NATIONAL INST. OF STANDARDS AND TECHNOLOGY: WALT STEVENS, DAVID GARMER
     UNIVERSITY OF PISA: BENEDETTA MENNUCCI, JACOPO TOMASI
     UNIVERSITY OF MEMPHIS: HENRY KURTZ, PRAKASHAN KORAMBATH
     UNIVERSITY OF ALBERTA: TOBY ZENG, MARIUSZ KLOBUKOWSKI
     UNIVERSITY OF NEW ENGLAND: MARK SPACKMAN
     MIE UNIVERSITY: HIROAKI UMEDA
     NAT. INST. OF ADVANCED INDUSTRIAL SCIENCE AND TECHNOLOGY: KAZUO KITAURA
     MICHIGAN STATE UNIVERSITY:
          KAROL KOWALSKI, MARTA WLOCH, JEFFREY GOUR, JESSE LUTZ,
          WEI LI, JUN SHEN, J. EMILIANO DEUSTUA, PIOTR PIECUCH
     UNIVERSITY OF MINNESOTA:
          YINAN SHU
     UNIVERSITY OF SILESIA: MONIKA MUSIAL, STANISLAW KUCHARSKI
     FACULTES UNIVERSITAIRES NOTRE-DAME DE LA PAIX:
          OLIVIER QUINET, BENOIT CHAMPAGNE
     UNIVERSITY OF CALIFORNIA - SANTA BARBARA: BERNARD KIRTMAN
     INSTITUTE FOR MOLECULAR SCIENCE:
          KAZUYA ISHIMURA, MICHIO KATOUDA, AND SHIGERU NAGASE
     UNIVERSITY OF NOTRE DAME: ANNA POMOGAEVA, DAN CHIPMAN
     KYUSHU UNIVERSITY:
          HARUYUKI NAKANO,
          FENG LONG GU, JACEK KORCHOWIEC, MARCIN MAKOWSKI, AND YURIKO AOKI,
          HIROTOSHI MORI AND EISAKU MIYOSHI
     PENNSYLVANIA STATE UNIVERSITY:
          TZVETELIN IORDANOV, CHET SWALINA, JONATHAN SKONE,
          SHARON HAMMES-SCHIFFER
     WASEDA UNIVERSITY:
          MASATO KOBAYASHI, TOMOKO AKAMA, TSUGUKI TOUMA,
          TAKESHI YOSHIKAWA, YASUHIRO IKABATA, JUNJI SEINO,
          YUYA NAKAJIMA, HIROMI NAKAI
     NANJING UNIVERSITY: SHUHUA LI
     UNIVERSITY OF NEBRASKA:
          PEIFENG SU, DEJUN SI, NANDUN THELLAMUREGE, YALI WANG, HUI LI
     UNIVERSITY OF ZURICH: ROBERTO PEVERATI, KIM BALDRIDGE
     N. COPERNICUS UNIVERSITY AND JACKSON STATE UNIVERSITY:
          MARIA BARYSZ
     UNIVERSITY OF COPENHAGEN: Jimmy Kromann, CASPER STEINMANN
     TOKYO INSTITUTE OF TECHNOLOGY: HIROYA NAKATA
     NAGOYA UNIVERSITY: YOSHIO NISHIMOTO, STEPHAN IRLE
     MOSCOW STATE UNIVERSITY: VLADIMIR MIRONOV
     A.N.NESMEYANOV INSTITUTE OF ORGANOELEMENT COMPOUNDS OF RUSSIAN ACADEMY OF SCIENCES:
          IGOR S. GERASIMOV

 EXECUTION OF GAMESS BEGUN Tue Dec 20 19:56:09 2022

            ECHO OF THE FIRST FEW INPUT CARDS -
 INPUT CARD>!                                                                               
 INPUT CARD>!   GAMESS Calculation input file                                               
 INPUT CARD>!   nashe                                                                       
 INPUT CARD>!                                                                               
 INPUT CARD> $CONTRL SCFTYP=RHF MAXIT=200 RUNTYP=OPTIMIZE                                   
 INPUT CARD>         COORD=UNIQUE MULT=1                                                    
 INPUT CARD>         ICHARG=0                                                               
 INPUT CARD>         MOLPLT=.FALSE. PLTORB=.FALSE.  $END                                    
 INPUT CARD> $SYSTEM TIMLIM=2879 MWORDS=250  $END                                           
 INPUT CARD>                                                                                
 INPUT CARD> $STATPT OPTTOL=0.0005 NSTEP=999 $END                                           
 INPUT CARD> $STATPT IHREP=0  $END                                                          
 INPUT CARD>                                                                                
 INPUT CARD> $BASIS  GBASIS=N31 NGAUSS=6                                                    
 INPUT CARD>         NDFUNC=1   NPFUNC=0  $END                                              
 INPUT CARD>                                                                                
 INPUT CARD> $SCF    DIRSCF=.T. $END                                                        
 INPUT CARD> $GUESS  GUESS=HUCKEL  $END                                                     
 INPUT CARD>                                                                                
 INPUT CARD> $DATA                                                                          
 INPUT CARD>   nashe                                                                        
 INPUT CARD>  C1                                                                            
 INPUT CARD>C     6.0     1.17416    -0.79285     0.14823                                   
 INPUT CARD>C     6.0     1.28722     0.69652    -0.01063                                   
 INPUT CARD>C     6.0    -0.04939     1.46479    -0.02511                                   
 INPUT CARD>C     6.0    -1.28171     0.61085    -0.11204                                   
 INPUT CARD>C     6.0    -1.23847    -0.72497    -0.08194                                   
 INPUT CARD>C     6.0     0.00457    -1.43591     0.08281                                   
 INPUT CARD>H     1.0     2.09154    -1.35536     0.29760                                   
 INPUT CARD>H     1.0     1.81952     0.89048    -0.94470                                   
 INPUT CARD>H     1.0     1.92176     1.09632     0.78425                                   
 INPUT CARD>H     1.0    -0.04718     2.17076    -0.86445                                   
 INPUT CARD>H     1.0    -0.11958     2.07462     0.87717                                   
 INPUT CARD>H     1.0    -2.24021     1.11651    -0.19197                                   
 INPUT CARD>H     1.0    -2.15226    -1.31206    -0.14321                                   
 INPUT CARD>H     1.0    -0.03973    -2.51919     0.16941                                   
 INPUT CARD> $END                                                                           
 INPUT CARD>                                                                                
 INPUT CARD>                                                                                
 INPUT CARD>! Customizations after this line are persisted when using Do More Calculations  
  250000000 WORDS OF MEMORY AVAILABLE

     BASIS OPTIONS
     -------------
     GBASIS=N31          IGAUSS=       6      POLAR=POPN31  
     NDFUNC=       1     NFFUNC=       0     DIFFSP=       F
     NPFUNC=       0      DIFFS=       F     BASNAM=        


     RUN TITLE
     ---------
    nashe                                                                        

 THE POINT GROUP OF THE MOLECULE IS C1      
 THE ORDER OF THE PRINCIPAL AXIS IS     0

 ATOM      ATOMIC                      COORDINATES (BOHR)
           CHARGE         X                   Y                   Z
 C           6.0     2.2188406657       -1.4982692494        0.2801140832
 C           6.0     2.4324930859        1.3162319450       -0.0200877872
 C           6.0    -0.0933335665        2.7680517296       -0.0474510196
 C           6.0    -2.4220806957        1.1543391196       -0.2117248997
 C           6.0    -2.3403689440       -1.3699946493       -0.1548441474
 C           6.0     0.0086360478       -2.7134764430        0.1564882090
 H           1.0     3.9524374924       -2.5612590147        0.5623824539
 H           1.0     3.4383942292        1.6827631975       -1.7852241406
 H           1.0     3.6315998142        2.0717443949        1.4820176059
 H           1.0    -0.0891572721        4.1021415851       -1.6335736301
 H           1.0    -0.2259734336        3.9204633286        1.6576109446
 H           1.0    -4.2333830550        2.1098979626       -0.3627706979
 H           1.0    -4.0671816543       -2.4794338795       -0.2706276587
 H           1.0    -0.0750788135       -4.7605788110        0.3201384796

          INTERNUCLEAR DISTANCES (ANGS.)
          ------------------------------

                1 C          2 C          3 C          4 C          5 C     

   1 C       0.0000000    1.5020792 *  2.5737249 *  2.8406710 *  2.4245349 *
   2 C       1.5020792 *  0.0000000    1.5417441 *  2.5723578 *  2.8991083 *
   3 C       2.5737249 *  1.5417441 *  0.0000000    1.5017932 *  2.4924265 *
   4 C       2.8406710 *  2.5723578 *  1.5017932 *  0.0000000    1.3368585 *
   5 C       2.4245349 *  2.8991083 *  2.4924265 *  1.3368585 *  0.0000000  
   6 C       1.3363183 *  2.4902168 *  2.9032084 *  2.4252235 *  1.4414322 *
   7 H       1.0864230 *  2.2253422 *  3.5554140    3.9258887    3.4103385  
   8 H       2.1082185 *  1.0924516 *  2.1606254 *  3.2232194    3.5644546  
   9 H       2.1289412 *  1.0928473 *  2.1624676 *  3.3617312    3.7489247  
  10 H       3.3615735    2.1640276 *  1.0967635 *  2.1268532 *  3.2274984  
  11 H       3.2291641    2.1601932 *  1.0912967 *  2.1146407 *  3.1637811  
  12 H       3.9267435    3.5569704    2.2245974 *  1.0866476 *  2.0991994 *
  13 H       3.3792878    3.9852219    3.4852411    2.1110215 *  1.0878607 *
  14 H       2.1105040 *  3.4833894    3.9887376    3.3791832    2.1724134 *

                6 C          7 H          8 H          9 H         10 H     

   1 C       1.3363183 *  1.0864230 *  2.1082185 *  2.1289412 *  3.3615735  
   2 C       2.4902168 *  2.2253422 *  1.0924516 *  1.0928473 *  2.1640276 *
   3 C       2.9032084 *  3.5554140    2.1606254 *  2.1624676 *  1.0967635 *
   4 C       2.4252235 *  3.9258887    3.2232194    3.3617312    2.1268532 *
   5 C       1.4414322 *  3.4103385    3.5644546    3.7489247    3.2274984  
   6 C       0.0000000    2.0995397 *  3.1244057    3.2526642    3.7293495  
   7 H       2.0995397 *  0.0000000    2.5809110 *  2.5052721 *  4.2846243  
   8 H       3.1244057    2.5809110 *  0.0000000    1.7441592 *  2.2649781 *
   9 H       3.2526642    2.5052721 *  1.7441592 *  0.0000000    2.7837668 *
  10 H       3.7293495    4.2846243    2.2649781 *  2.7837668 *  0.0000000  
  11 H       3.6014222    4.1218583    2.9123026 *  2.2655626 *  1.7457734 *
  12 H       3.4101890    5.0113749    4.1351058    4.2749746    2.5244906 *
  13 H       2.1721739 *  4.2668521    4.6117898    4.8226668    4.1329873  
  14 H       1.0876385 *  2.4317164 *  4.0402848    4.1590124    4.8025569  

               11 H         12 H         13 H         14 H     

   1 C       3.2291641    3.9267435    3.3792878    2.1105040 *
   2 C       2.1601932 *  3.5569704    3.9852219    3.4833894  
   3 C       1.0912967 *  2.2245974 *  3.4852411    3.9887376  
   4 C       2.1146407 *  1.0866476 *  2.1110215 *  3.3791832  
   5 C       3.1637811    2.0991994 *  1.0878607 *  2.1724134 *
   6 C       3.6014222    3.4101890    2.1721739 *  1.0876385 *
   7 H       4.1218583    5.0113749    4.2668521    2.4317164 *
   8 H       2.9123026 *  4.1351058    4.6117898    4.0402848  
   9 H       2.2655626 *  4.2749746    4.8226668    4.1590124  
  10 H       1.7457734 *  2.5244906 *  4.1329873    4.8025569  
  11 H       0.0000000    2.5608801 *  4.0795300    4.6486977  
  12 H       2.5608801 *  0.0000000    2.4306511 *  4.2650935  
  13 H       4.0795300    2.4306511 *  0.0000000    2.4530954 *
  14 H       4.6486977    4.2650935    2.4530954 *  0.0000000  

  * ... LESS THAN  3.000


     ATOMIC BASIS SET
     ----------------
 THE CONTRACTED PRIMITIVE FUNCTIONS HAVE BEEN UNNORMALIZED
 THE CONTRACTED BASIS FUNCTIONS ARE NOW NORMALIZED TO UNITY

  SHELL TYPE  PRIMITIVE        EXPONENT          CONTRACTION COEFFICIENT(S)

 C         

      1   S       1          3047.5248800    0.001834737132
      1   S       2           457.3695180    0.014037322813
      1   S       3           103.9486850    0.068842622264
      1   S       4            29.2101553    0.232184443216
      1   S       5             9.2866630    0.467941348435
      1   S       6             3.1639270    0.362311985337

      2   L       7             7.8682723   -0.119332419775    0.068999066591
      2   L       8             1.8812885   -0.160854151696    0.316423960957
      2   L       9             0.5442493    1.143456437840    0.744308290898

      3   L      10             0.1687145    1.000000000000    1.000000000000

      4   D      11             0.8000000    1.000000000000

 C         

      5   S      12          3047.5248800    0.001834737132
      5   S      13           457.3695180    0.014037322813
      5   S      14           103.9486850    0.068842622264
      5   S      15            29.2101553    0.232184443216
      5   S      16             9.2866630    0.467941348435
      5   S      17             3.1639270    0.362311985337

      6   L      18             7.8682723   -0.119332419775    0.068999066591
      6   L      19             1.8812885   -0.160854151696    0.316423960957
      6   L      20             0.5442493    1.143456437840    0.744308290898

      7   L      21             0.1687145    1.000000000000    1.000000000000

      8   D      22             0.8000000    1.000000000000

 C         

      9   S      23          3047.5248800    0.001834737132
      9   S      24           457.3695180    0.014037322813
      9   S      25           103.9486850    0.068842622264
      9   S      26            29.2101553    0.232184443216
      9   S      27             9.2866630    0.467941348435
      9   S      28             3.1639270    0.362311985337

     10   L      29             7.8682723   -0.119332419775    0.068999066591
     10   L      30             1.8812885   -0.160854151696    0.316423960957
     10   L      31             0.5442493    1.143456437840    0.744308290898

     11   L      32             0.1687145    1.000000000000    1.000000000000

     12   D      33             0.8000000    1.000000000000

 C         

     13   S      34          3047.5248800    0.001834737132
     13   S      35           457.3695180    0.014037322813
     13   S      36           103.9486850    0.068842622264
     13   S      37            29.2101553    0.232184443216
     13   S      38             9.2866630    0.467941348435
     13   S      39             3.1639270    0.362311985337

     14   L      40             7.8682723   -0.119332419775    0.068999066591
     14   L      41             1.8812885   -0.160854151696    0.316423960957
     14   L      42             0.5442493    1.143456437840    0.744308290898

     15   L      43             0.1687145    1.000000000000    1.000000000000

     16   D      44             0.8000000    1.000000000000

 C         

     17   S      45          3047.5248800    0.001834737132
     17   S      46           457.3695180    0.014037322813
     17   S      47           103.9486850    0.068842622264
     17   S      48            29.2101553    0.232184443216
     17   S      49             9.2866630    0.467941348435
     17   S      50             3.1639270    0.362311985337

     18   L      51             7.8682723   -0.119332419775    0.068999066591
     18   L      52             1.8812885   -0.160854151696    0.316423960957
     18   L      53             0.5442493    1.143456437840    0.744308290898

     19   L      54             0.1687145    1.000000000000    1.000000000000

     20   D      55             0.8000000    1.000000000000

 C         

     21   S      56          3047.5248800    0.001834737132
     21   S      57           457.3695180    0.014037322813
     21   S      58           103.9486850    0.068842622264
     21   S      59            29.2101553    0.232184443216
     21   S      60             9.2866630    0.467941348435
     21   S      61             3.1639270    0.362311985337

     22   L      62             7.8682723   -0.119332419775    0.068999066591
     22   L      63             1.8812885   -0.160854151696    0.316423960957
     22   L      64             0.5442493    1.143456437840    0.744308290898

     23   L      65             0.1687145    1.000000000000    1.000000000000

     24   D      66             0.8000000    1.000000000000

 H         

     25   S      67            18.7311370    0.033494604338
     25   S      68             2.8253944    0.234726953484
     25   S      69             0.6401217    0.813757326146

     26   S      70             0.1612778    1.000000000000

 H         

     27   S      71            18.7311370    0.033494604338
     27   S      72             2.8253944    0.234726953484
     27   S      73             0.6401217    0.813757326146

     28   S      74             0.1612778    1.000000000000

 H         

     29   S      75            18.7311370    0.033494604338
     29   S      76             2.8253944    0.234726953484
     29   S      77             0.6401217    0.813757326146

     30   S      78             0.1612778    1.000000000000

 H         

     31   S      79            18.7311370    0.033494604338
     31   S      80             2.8253944    0.234726953484
     31   S      81             0.6401217    0.813757326146

     32   S      82             0.1612778    1.000000000000

 H         

     33   S      83            18.7311370    0.033494604338
     33   S      84             2.8253944    0.234726953484
     33   S      85             0.6401217    0.813757326146

     34   S      86             0.1612778    1.000000000000

 H         

     35   S      87            18.7311370    0.033494604338
     35   S      88             2.8253944    0.234726953484
     35   S      89             0.6401217    0.813757326146

     36   S      90             0.1612778    1.000000000000

 H         

     37   S      91            18.7311370    0.033494604338
     37   S      92             2.8253944    0.234726953484
     37   S      93             0.6401217    0.813757326146

     38   S      94             0.1612778    1.000000000000

 H         

     39   S      95            18.7311370    0.033494604338
     39   S      96             2.8253944    0.234726953484
     39   S      97             0.6401217    0.813757326146

     40   S      98             0.1612778    1.000000000000

 TOTAL NUMBER OF BASIS SET SHELLS             =   40
 NUMBER OF CARTESIAN GAUSSIAN BASIS FUNCTIONS =  106
 NUMBER OF ELECTRONS                          =   44
 CHARGE OF MOLECULE                           =    0
 SPIN MULTIPLICITY                            =    1
 NUMBER OF OCCUPIED ORBITALS (ALPHA)          =   22
 NUMBER OF OCCUPIED ORBITALS (BETA )          =   22
 TOTAL NUMBER OF ATOMS                        =   14
 THE NUCLEAR REPULSION ENERGY IS      218.6924018589

     $CONTRL OPTIONS
     ---------------
 SCFTYP=RHF          RUNTYP=OPTIMIZE     EXETYP=RUN     
 MPLEVL=       0     CITYP =NONE         CCTYP =NONE         VBTYP =NONE    
 DFTTYP=NONE         TDDFT =NONE    
 MULT  =       1     ICHARG=       0     NZVAR =       0     COORD =UNIQUE  
 PP    =NONE         RELWFN=NONE         LOCAL =NONE         NUMGRD=       F
 ISPHER=      -1     NOSYM =       0     MAXIT =     200     UNITS =ANGS    
 PLTORB=       F     MOLPLT=       F     AIMPAC=       F     FRIEND=        
 NPRINT=       7     IREST =       0     GEOM  =INPUT   
 NORMF =       0     NORMP =       0     ITOL  =      20     ICUT  =       9
 INTTYP=BEST         GRDTYP=BEST         QMTTOL= 1.0E-06

     $SYSTEM OPTIONS
     ---------------
  REPLICATED MEMORY=   250000000 WORDS (ON EVERY NODE).
 DISTRIBUTED MEMDDI=           0 MILLION WORDS IN AGGREGATE,
 MEMDDI DISTRIBUTED OVER   1 PROCESSORS IS           0 WORDS/PROCESSOR.
 TOTAL MEMORY REQUESTED ON EACH PROCESSOR=   250000000 WORDS.
 TIMLIM=        2879.00 MINUTES, OR       2.0 DAYS.
 PARALL= F  BALTYP=  DLB     KDIAG=    0  COREFL= F
 MXSEQ2=     300 MXSEQ3=     150  mem10=         0

          ----------------
          PROPERTIES INPUT
          ----------------

     MOMENTS            FIELD           POTENTIAL          DENSITY
 IEMOM =       1   IEFLD =       0   IEPOT =       0   IEDEN =       0
 WHERE =COMASS     WHERE =NUCLEI     WHERE =NUCLEI     WHERE =NUCLEI  
 OUTPUT=BOTH       OUTPUT=BOTH       OUTPUT=BOTH       OUTPUT=BOTH    
 IEMINT=       0   IEFINT=       0                     IEDINT=       0
                                                       MORB  =       0
          EXTRAPOLATION IN EFFECT
          SOSCF IN EFFECT
 ORBITAL PRINTING OPTION: NPREO=     1   106     2     1

     -------------------------------
     INTEGRAL TRANSFORMATION OPTIONS
     -------------------------------
     NWORD  =            0
     CUTOFF = 1.0E-09     MPTRAN =       0
     DIRTRF =       T     AOINTS =DUP     

          ----------------------
          INTEGRAL INPUT OPTIONS
          ----------------------
 NOPK  =       1 NORDER=       0 SCHWRZ=       T

     ------------------------------------------
     THE POINT GROUP IS C1 , NAXIS= 0, ORDER= 1
     ------------------------------------------

     DIMENSIONS OF THE SYMMETRY SUBSPACES ARE
 A   =  106

 ..... DONE SETTING UP THE RUN .....
 STEP CPU TIME =     0.01 TOTAL CPU TIME =          0.0 (      0.0 MIN)
 TOTAL WALL CLOCK TIME=          0.0 SECONDS, CPU UTILIZATION IS    50.00%


          -----------------------------
          STATIONARY POINT LOCATION RUN
          -----------------------------

 OBTAINING INITIAL HESSIAN, HESS=GUESS   
 CARTESIAN COORDINATE OPTIMIZATION USING BADGER'S RULE FORCE CONSTANT GUESS

          PARAMETERS CONTROLLING GEOMETRY SEARCH ARE
          METHOD =QA                  UPHESS =BFGS    
          NNEG   =         0          NFRZ   =         0
          NSTEP  =       999          IFOLOW =         1
          HESS   =GUESS               RESTAR =         F
          IHREP  =         0          HSSEND =         F
          NPRT   =         0          NPUN   =         0
          OPTTOL = 5.000E-04          RMIN   = 1.500E-03
          RMAX   = 1.000E-01          RLIM   = 7.000E-02
          DXMAX  = 3.000E-01          PURIFY =         F
          MOVIE  =         F          TRUPD  =         T
          TRMAX  = 5.000E-01          TRMIN  = 5.000E-02
          ITBMAT =         5          STPT   =         F
          STSTEP = 1.000E-02          PROJCT=          T

 BEGINNING GEOMETRY SEARCH POINT NSERCH=   0 ...

 COORDINATES OF ALL ATOMS ARE (ANGS)
   ATOM   CHARGE       X              Y              Z
 ------------------------------------------------------------
 C           6.0   1.1741600000  -0.7928500000   0.1482300000
 C           6.0   1.2872200000   0.6965200000  -0.0106300000
 C           6.0  -0.0493900000   1.4647900000  -0.0251100000
 C           6.0  -1.2817100000   0.6108500000  -0.1120400000
 C           6.0  -1.2384700000  -0.7249700000  -0.0819400000
 C           6.0   0.0045700000  -1.4359100000   0.0828100000
 H           1.0   2.0915400000  -1.3553600000   0.2976000000
 H           1.0   1.8195200000   0.8904800000  -0.9447000000
 H           1.0   1.9217600000   1.0963200000   0.7842500000
 H           1.0  -0.0471800000   2.1707600000  -0.8644500000
 H           1.0  -0.1195800000   2.0746200000   0.8771700000
 H           1.0  -2.2402100000   1.1165100000  -0.1919700000
 H           1.0  -2.1522600000  -1.3120600000  -0.1432100000
 H           1.0  -0.0397300000  -2.5191900000   0.1694100000

          ********************
          1 ELECTRON INTEGRALS
          ********************
 ...... END OF ONE-ELECTRON INTEGRALS ......
 STEP CPU TIME =     0.00 TOTAL CPU TIME =          0.0 (      0.0 MIN)
 TOTAL WALL CLOCK TIME=          0.0 SECONDS, CPU UTILIZATION IS    33.33%

          -------------
          GUESS OPTIONS
          -------------
          GUESS =HUCKEL            NORB  =       0          NORDER=       0
          MIX   =       F          PRTMO =       F          PUNMO =       F
          TOLZ  = 1.0E-08          TOLE  = 1.0E-05
          SYMDEN=       F          PURIFY=       F

 INITIAL GUESS ORBITALS GENERATED BY HUCKEL   ROUTINE.
 HUCKEL GUESS REQUIRES     97814 WORDS.

 SYMMETRIES FOR INITIAL GUESS ORBITALS FOLLOW.   BOTH SET(S).
    22 ORBITALS ARE OCCUPIED (    6 CORE ORBITALS).
     7=A        8=A        9=A       10=A       11=A       12=A       13=A   
    14=A       15=A       16=A       17=A       18=A       19=A       20=A   
    21=A       22=A       23=A       24=A       25=A       26=A       27=A   
    28=A       29=A       30=A       31=A       32=A   
 ...... END OF INITIAL ORBITAL SELECTION ......
 STEP CPU TIME =     0.02 TOTAL CPU TIME =          0.0 (      0.0 MIN)
 TOTAL WALL CLOCK TIME=          0.0 SECONDS, CPU UTILIZATION IS    60.00%

                    ----------------------
                    AO INTEGRAL TECHNOLOGY
                    ----------------------
     S,P,L SHELL ROTATED AXIS INTEGRALS, REPROGRAMMED BY
        KAZUYA ISHIMURA (IMS) AND JOSE SIERRA (SYNSTAR).
     S,P,D,L SHELL ROTATED AXIS INTEGRALS PROGRAMMED BY
        KAZUYA ISHIMURA (INSTITUTE FOR MOLECULAR SCIENCE).
     S,P,D,F,G SHELL TO TOTAL QUARTET ANGULAR MOMENTUM SUM 5,
        ERIC PROGRAM BY GRAHAM FLETCHER (ELORET AND NASA ADVANCED
        SUPERCOMPUTING DIVISION, AMES RESEARCH CENTER).
     S,P,D,F,G,L SHELL GENERAL RYS QUADRATURE PROGRAMMED BY
        MICHEL DUPUIS (PACIFIC NORTHWEST NATIONAL LABORATORY).

          --------------------
          2 ELECTRON INTEGRALS
          --------------------

 DIRECT SCF METHOD SKIPS INTEGRAL STORAGE ON DISK.
 DIRECT TRANSFORMATION SKIPS AO INTEGRAL STORAGE ON DISK.
  ...... END OF TWO-ELECTRON INTEGRALS .....
 STEP CPU TIME =     0.01 TOTAL CPU TIME =          0.0 (      0.0 MIN)
 TOTAL WALL CLOCK TIME=          0.1 SECONDS, CPU UTILIZATION IS    57.14%

          --------------------------
                 RHF SCF CALCULATION
          --------------------------

     NUCLEAR ENERGY =       218.6924018589
     MAXIT =  200     NPUNCH=    2
     EXTRAP=T  DAMP=F  SHIFT=F  RSTRCT=F  DIIS=F  DEM=F  SOSCF=T
     DENSITY MATRIX CONV=  2.00E-05
     SOSCF WILL OPTIMIZE    1848 ORBITAL ROTATIONS, SOGTOL=   0.250
     MEMORY REQUIRED FOR RHF ITERS=    134564 WORDS.

 DIRECT SCF CALCULATION, SCHWRZ=T   FDIFF=T,  DIRTHR=  0.00E+00 NITDIR=10
 SCHWARZ INEQUALITY OVERHEAD:      5666 INTEGRALS, T=        0.00

                                                                                   NONZERO     BLOCKS
 ITER EX DEM     TOTAL ENERGY        E CHANGE  DENSITY CHANGE     ORB. GRAD      INTEGRALS    SKIPPED
   1  0  0     -231.2865381940  -231.2865381940   0.142587148   0.000000000       15284967      45163
          ---------------START SECOND ORDER SCF---------------
   2  1  0     -231.7942880918    -0.5077498978   0.056676444   0.051820721       15277867      48497
   3  2  0     -231.8220170856    -0.0277289938   0.017306902   0.017623574       15209542      54161
   4  3  0     -231.8267888550    -0.0047717694   0.005805465   0.002519965       15104836      60892
   5  4  0     -231.8269243971    -0.0001355420   0.001906253   0.001379441       14913995      68146
   6  5  0     -231.8269390610    -0.0000146639   0.000518972   0.000281182       14679131      78370
   7  6  0     -231.8269409787    -0.0000019177   0.000135960   0.000069141       14342717      90732
   8  7  0     -231.8269410905    -0.0000001117   0.000039609   0.000035250       13950228     104431
   9  8  0     -231.8269411041    -0.0000000136   0.000010373   0.000006298       13578306     117356
  10  9  0     -231.8269411049    -0.0000000009   0.000004071   0.000001505       12963266     134889

          -----------------
          DENSITY CONVERGED
          -----------------
     TIME TO FORM FOCK OPERATORS=       5.0 SECONDS (       0.5 SEC/ITER)
     FOCK TIME ON FIRST ITERATION=       0.5, LAST ITERATION=       0.4
     TIME TO SOLVE SCF EQUATIONS=       0.0 SECONDS (       0.0 SEC/ITER)

 FINAL RHF ENERGY IS     -231.8269411049 AFTER  10 ITERATIONS

          ------------
          EIGENVECTORS
          ------------

                      1          2          3          4          5
                  -11.2257   -11.2250   -11.2245   -11.2242   -11.2184
                     A          A          A          A          A   
    1  C  1  S    0.088639   0.371727   0.153830   0.897136  -0.086274
    2  C  1  S    0.002414   0.010334   0.004113   0.024912  -0.002677
    3  C  1  X    0.000060   0.000010   0.000005  -0.000051   0.000125
    4  C  1  Y   -0.000083   0.000119   0.000006   0.000203   0.000000
    5  C  1  Z    0.000001  -0.000017  -0.000000  -0.000044   0.000020
    6  C  1  S   -0.000214  -0.000437   0.000640  -0.015103   0.003444
    7  C  1  X    0.000243  -0.000057  -0.000957   0.002315  -0.001249
    8  C  1  Y    0.000797   0.002018   0.000727  -0.002361  -0.000200
    9  C  1  Z   -0.000021  -0.000181  -0.000142   0.000514  -0.000112
   10  C  1 XX   -0.000182  -0.000732  -0.000277  -0.001400   0.000075
   11  C  1 YY   -0.000360  -0.001091  -0.000335  -0.001397  -0.000005
   12  C  1 ZZ   -0.000332  -0.000991  -0.000437  -0.002000   0.000130
   13  C  1 XY   -0.000015   0.000022   0.000053   0.000226  -0.000012
   14  C  1 XZ    0.000000   0.000041   0.000025   0.000040  -0.000007
   15  C  1 YZ    0.000014   0.000016  -0.000000  -0.000057   0.000016
   16  C  2  S    0.390733   0.822277   0.088369  -0.393826   0.005220
   17  C  2  S    0.011172   0.023824   0.002640  -0.011350   0.000046
   18  C  2  X   -0.000083  -0.000024   0.000080   0.000062   0.000007
   19  C  2  Y    0.000004  -0.000066   0.000003   0.000122   0.000044
   20  C  2  Z   -0.000004  -0.000013   0.000025  -0.000030   0.000011
   21  C  2  S   -0.002376  -0.015900  -0.004417   0.011865  -0.000172
   22  C  2  X   -0.001342   0.001280   0.001336  -0.001987  -0.000003
   23  C  2  Y    0.000749  -0.000129  -0.000065  -0.001901   0.000139
   24  C  2  Z   -0.000010   0.000061  -0.000147   0.000226  -0.000078
   25  C  2 XX   -0.001030  -0.001296  -0.000015   0.000516   0.000003
   26  C  2 YY   -0.000931  -0.001438  -0.000117   0.000082   0.000062
   27  C  2 ZZ   -0.000768  -0.001242  -0.000110   0.000505  -0.000039
   28  C  2 XY    0.000179  -0.000065  -0.000069   0.000065   0.000008
   29  C  2 XZ   -0.000004   0.000010   0.000007  -0.000023   0.000001
   30  C  2 YZ    0.000010   0.000033   0.000019   0.000051  -0.000016
   31  C  3  S    0.873108  -0.328494  -0.331758   0.106956   0.005846
   32  C  3  S    0.025172  -0.009619  -0.009552   0.003165   0.000111
   33  C  3  X   -0.000003   0.000057   0.000066  -0.000054   0.000040
   34  C  3  Y   -0.000088  -0.000015   0.000125   0.000050   0.000030
   35  C  3  Z    0.000005  -0.000011   0.000013  -0.000045  -0.000000
   36  C  3  S   -0.013531   0.009649   0.010370  -0.005979  -0.000966
   37  C  3  X    0.000455   0.001468  -0.000676  -0.000594   0.000104
   38  C  3  Y    0.000377  -0.001179  -0.002439   0.001698   0.000415
   39  C  3  Z    0.000003   0.000078  -0.000087   0.000224   0.000031
   40  C  3 XX   -0.001720   0.000263   0.000040   0.000073   0.000067
   41  C  3 YY   -0.001605   0.000419   0.000352  -0.000067   0.000045
   42  C  3 ZZ   -0.001439   0.000377   0.000405  -0.000108  -0.000024
   43  C  3 XY    0.000039   0.000180  -0.000194  -0.000048   0.000046
   44  C  3 XZ   -0.000012   0.000005  -0.000030  -0.000003   0.000014
   45  C  3 YZ   -0.000002   0.000010  -0.000009  -0.000007   0.000002
   46  C  4  S    0.259941  -0.258570   0.913595  -0.077549  -0.105178
   47  C  4  S    0.007178  -0.007211   0.025329  -0.002306  -0.003275
   48  C  4  X   -0.000026  -0.000148   0.000193  -0.000042  -0.000076
   49  C  4  Y    0.000050  -0.000046   0.000059  -0.000011   0.000135
   50  C  4  Z    0.000001  -0.000002   0.000008  -0.000014  -0.000010
   51  C  4  S    0.000669   0.000817  -0.014590   0.004084   0.005222
   52  C  4  X    0.001916  -0.000823  -0.002873   0.001702   0.000959
   53  C  4  Y    0.001012  -0.000330   0.000739  -0.000710  -0.001701
   54  C  4  Z    0.000104  -0.000085  -0.000246   0.000120   0.000136
   55  C  4 XX   -0.000816   0.000624  -0.001623   0.000074  -0.000006
   56  C  4 YY   -0.000645   0.000498  -0.001266   0.000087  -0.000009
   57  C  4 ZZ   -0.000794   0.000612  -0.002071   0.000096   0.000153
   58  C  4 XY   -0.000196   0.000057   0.000101  -0.000015  -0.000054
   59  C  4 XZ   -0.000005  -0.000012   0.000040  -0.000005  -0.000013
   60  C  4 YZ   -0.000020   0.000015  -0.000006  -0.000013  -0.000007
   61  C  5  S    0.027831  -0.028819   0.120721  -0.002437   0.777811
   62  C  5  S    0.000565  -0.000821   0.002937   0.000034   0.021788
   63  C  5  X   -0.000075  -0.000057  -0.000019  -0.000013   0.000147
   64  C  5  Y   -0.000130   0.000054  -0.000167   0.000036  -0.000003
   65  C  5  Z   -0.000003   0.000004   0.000009  -0.000017   0.000026
   66  C  5  S    0.000355   0.000518   0.004981  -0.003214  -0.008838
   67  C  5  X   -0.000439   0.000791   0.001730  -0.001551  -0.000481
   68  C  5  Y    0.000615  -0.000401   0.002303  -0.001121  -0.001290
   69  C  5  Z   -0.000041   0.000082   0.000098  -0.000079  -0.000063
   70  C  5 XX   -0.000121   0.000118  -0.000517   0.000103  -0.001719
   71  C  5 YY   -0.000066   0.000073  -0.000499   0.000015  -0.001411
   72  C  5 ZZ   -0.000170   0.000038  -0.000409   0.000054  -0.001949
   73  C  5 XY   -0.000020  -0.000014   0.000040   0.000020   0.000027
   74  C  5 XZ    0.000005   0.000006  -0.000008   0.000004   0.000018
   75  C  5 YZ   -0.000001  -0.000006   0.000005   0.000002  -0.000009
   76  C  6  S    0.009947   0.041053   0.026959   0.119122   0.606226
   77  C  6  S    0.000082   0.001005   0.000734   0.002903   0.016959
   78  C  6  X   -0.000017  -0.000105   0.000003  -0.000139  -0.000033
   79  C  6  Y   -0.000114  -0.000075  -0.000029  -0.000086   0.000064
   80  C  6  Z    0.000000   0.000010   0.000004  -0.000011  -0.000001
   81  C  6  S    0.001120   0.000027  -0.001955   0.005457  -0.005071
   82  C  6  X    0.000146   0.001081   0.000128   0.001091  -0.001016
   83  C  6  Y    0.000538  -0.000277  -0.001235   0.002955  -0.000115
   84  C  6  Z   -0.000032   0.000080   0.000096  -0.000133  -0.000077
   85  C  6 XX   -0.000023  -0.000119  -0.000105  -0.000521  -0.001370
   86  C  6 YY   -0.000066  -0.000160  -0.000027  -0.000487  -0.001356
   87  C  6 ZZ   -0.000128  -0.000148  -0.000055  -0.000406  -0.001573
   88  C  6 XY   -0.000001   0.000040  -0.000026   0.000033   0.000179
   89  C  6 XZ    0.000008   0.000001  -0.000003  -0.000026   0.000003
   90  C  6 YZ   -0.000006  -0.000009   0.000000   0.000017  -0.000009
   91  H  7  S   -0.000049  -0.000113   0.000004  -0.000175   0.000015
   92  H  7  S    0.000345   0.000837   0.000559   0.001112   0.000044
   93  H  8  S   -0.000087   0.000239   0.000112  -0.000306  -0.000001
   94  H  8  S    0.001027   0.002492   0.000159  -0.000542  -0.000044
   95  H  9  S   -0.000063   0.000224   0.000123  -0.000248   0.000014
   96  H  9  S    0.000944   0.002366   0.000313  -0.000696   0.000041
   97  H 10  S    0.000134  -0.000196  -0.000234   0.000180   0.000031
   98  H 10  S    0.002367  -0.001088  -0.000490   0.000297  -0.000003
   99  H 11  S    0.000121  -0.000223  -0.000266   0.000158   0.000030
  100  H 11  S    0.002452  -0.001128  -0.000440   0.000055  -0.000035
  101  H 12  S   -0.000097   0.000056  -0.000174   0.000053   0.000025
  102  H 12  S    0.000781  -0.000449   0.001224   0.000227   0.000102
  103  H 13  S   -0.000034   0.000029   0.000017  -0.000060  -0.000182
  104  H 13  S    0.000132   0.000140   0.000692  -0.000370   0.001200
  105  H 14  S   -0.000003  -0.000040  -0.000056   0.000029  -0.000151
  106  H 14  S    0.000246   0.000019  -0.000188   0.000730   0.001035

                      6          7          8          9         10
                  -11.2175    -1.1229    -1.0054    -1.0051    -0.8442
                     A          A          A          A          A   
    1  C  1  S   -0.096984  -0.092063   0.024837   0.122194  -0.015690
    2  C  1  S   -0.003005   0.173651  -0.045611  -0.232605   0.029037
    3  C  1  X    0.000133  -0.053456   0.067408   0.024945  -0.096882
    4  C  1  Y    0.000010   0.013888   0.090538  -0.003662  -0.148519
    5  C  1  Z    0.000014  -0.007296  -0.001876   0.005202   0.007472
    6  C  1  S    0.007485   0.114263  -0.047331  -0.187319   0.046518
    7  C  1  X   -0.002858  -0.003791   0.015116  -0.000777  -0.026763
    8  C  1  Y    0.000508   0.003542   0.012224  -0.002276  -0.031335
    9  C  1  Z   -0.000310  -0.000958   0.000110   0.000495   0.001050
   10  C  1 XX   -0.000134   0.006845  -0.008217  -0.007967   0.007777
   11  C  1 YY   -0.000155   0.006437   0.009617  -0.009023  -0.010520
   12  C  1 ZZ    0.000130  -0.007722   0.001470   0.009446  -0.000478
   13  C  1 XY   -0.000067   0.002678  -0.003909  -0.002537   0.003238
   14  C  1 XZ   -0.000024   0.001508  -0.000814  -0.001985   0.000682
   15  C  1 YZ    0.000022  -0.001456  -0.001410   0.002078   0.002027
   16  C  2  S    0.004822  -0.082673  -0.104800   0.073702   0.100223
   17  C  2  S    0.000259   0.152795   0.195915  -0.137185  -0.188933
   18  C  2  X    0.000002  -0.034013  -0.028891  -0.028899  -0.098678
   19  C  2  Y    0.000037  -0.022482   0.046193   0.065349   0.034852
   20  C  2  Z    0.000012   0.002109  -0.002385  -0.005546   0.001928
   21  C  2  S   -0.002930   0.118147   0.179249  -0.127665  -0.224101
   22  C  2  X    0.001046  -0.005370  -0.002881  -0.007832  -0.036016
   23  C  2  Y    0.000554  -0.002882   0.009581   0.010294   0.008187
   24  C  2  Z   -0.000153  -0.000406  -0.000195  -0.000062   0.001186
   25  C  2 XX    0.000051   0.004882   0.009163   0.003767   0.003422
   26  C  2 YY    0.000139   0.006769  -0.000208  -0.009705  -0.000880
   27  C  2 ZZ    0.000048  -0.000085   0.004489  -0.002860  -0.010906
   28  C  2 XY    0.000022  -0.000784  -0.005023  -0.004559  -0.007264
   29  C  2 XZ    0.000011  -0.000096   0.000340   0.000209  -0.000160
   30  C  2 YZ   -0.000010  -0.000640   0.000881   0.000815  -0.000912
   31  C  3  S   -0.003342  -0.082531  -0.117958  -0.050029  -0.100154
   32  C  3  S   -0.000236   0.152599   0.220327   0.092949   0.188798
   33  C  3  X   -0.000020  -0.002202   0.038263  -0.080957  -0.080200
   34  C  3  Y   -0.000014  -0.040886  -0.003594  -0.007839   0.067284
   35  C  3  Z    0.000001  -0.000652   0.000816  -0.003798   0.001766
   36  C  3  S    0.002775   0.117871   0.202610   0.087228   0.224195
   37  C  3  X    0.000073   0.000273   0.006900  -0.014605  -0.025365
   38  C  3  Y   -0.001134  -0.005959   0.002469   0.001053   0.026935
   39  C  3  Z   -0.000022   0.000224  -0.000188  -0.000573   0.001058
   40  C  3 XX   -0.000086   0.006898   0.006415   0.001556  -0.005668
   41  C  3 YY   -0.000080   0.004801   0.003541   0.002439   0.003096
   42  C  3 ZZ   -0.000052  -0.000143   0.005012   0.001748   0.010933
   43  C  3 XY   -0.000044   0.000584  -0.005135   0.010374   0.005779
   44  C  3 XZ   -0.000001   0.000323  -0.000217   0.000302  -0.000451
   45  C  3 YZ    0.000005   0.000191  -0.000264   0.000474  -0.000166
   46  C  4  S    0.072432  -0.091960  -0.001556  -0.124818   0.015212
   47  C  4  S    0.002245   0.173526   0.004630   0.237329  -0.028081
   48  C  4  X    0.000043   0.039363   0.046372   0.006485   0.078894
   49  C  4  Y   -0.000091  -0.038953   0.097579  -0.041076   0.159212
   50  C  4  Z   -0.000000   0.004358   0.001283   0.002197   0.005161
   51  C  4  S   -0.006404   0.114032  -0.006870   0.193197  -0.045694
   52  C  4  X   -0.001728   0.004931   0.002927   0.000865   0.013141
   53  C  4  Y    0.001856  -0.001368   0.019257  -0.002305   0.039085
   54  C  4  Z   -0.000178   0.000634   0.000005   0.000202   0.001012
   55  C  4 XX    0.000103   0.004680   0.009340   0.005238   0.008399
   56  C  4 YY    0.000199   0.008781  -0.004306   0.011373  -0.005513
   57  C  4 ZZ   -0.000094  -0.007900  -0.000652  -0.009823   0.000348
   58  C  4 XY    0.000030   0.001053   0.007365   0.000153   0.007752
   59  C  4 XZ    0.000026   0.001126   0.000790   0.001375   0.000854
   60  C  4 YZ    0.000002  -0.000307   0.000773  -0.000394   0.000725
   61  C  5  S   -0.608394  -0.097620   0.091833  -0.081983   0.077004
   62  C  5  S   -0.017133   0.184301  -0.175837   0.156876  -0.149413
   63  C  5  X   -0.000299   0.046363  -0.041411  -0.036641   0.074989
   64  C  5  Y    0.000032   0.035121   0.028901   0.096455  -0.063382
   65  C  5  Z   -0.000043   0.004884  -0.006742  -0.004832   0.009219
   66  C  5  S    0.014115   0.120662  -0.127761   0.114796  -0.125706
   67  C  5  X    0.003489   0.004985  -0.003872  -0.017285   0.035342
   68  C  5  Y    0.001204   0.002170   0.010673   0.002214   0.007440
   69  C  5  Z    0.000363   0.000539  -0.001119  -0.001264   0.003102
   70  C  5 XX    0.000715   0.006031  -0.010026  -0.004547   0.000877
   71  C  5 YY    0.000569   0.008080  -0.004343   0.011590  -0.007422
   72  C  5 ZZ    0.001304  -0.008260   0.007759  -0.005472   0.005125
   73  C  5 XY    0.000273  -0.001787   0.004080   0.004258  -0.005705
   74  C  5 XZ   -0.000079   0.001787  -0.002277  -0.000064  -0.000040
   75  C  5 YZ    0.000064  -0.000719   0.000872  -0.000024  -0.000124
   76  C  6  S    0.779168  -0.097699   0.107055   0.060710  -0.076838
   77  C  6  S    0.021918   0.184446  -0.204939  -0.116151   0.149058
   78  C  6  X   -0.000195   0.006744   0.023586  -0.108942   0.092954
   79  C  6  Y    0.000266   0.057954  -0.024421  -0.012776  -0.032212
   80  C  6  Z   -0.000024  -0.003157   0.003254  -0.008471   0.012882
   81  C  6  S   -0.015831   0.120499  -0.149164  -0.085083   0.125306
   82  C  6  X    0.000508  -0.000751   0.008706  -0.012737   0.011487
   83  C  6  Y   -0.003769   0.005259   0.004836   0.013090  -0.034038
   84  C  6  Z    0.000271  -0.000227   0.000453  -0.001961   0.004237
   85  C  6 XX   -0.000759   0.008857  -0.009530  -0.002196   0.000884
   86  C  6 YY   -0.001254   0.005216  -0.005943  -0.001618   0.005537
   87  C  6 ZZ   -0.001738  -0.008228   0.008670   0.003677  -0.005022
   88  C  6 XY   -0.000013   0.000194   0.002548  -0.011014   0.007036
   89  C  6 XZ    0.000112   0.001821  -0.002204   0.000145   0.000343
   90  C  6 YZ   -0.000047  -0.001119   0.001589  -0.000442  -0.000264
   91  H  7  S    0.000039   0.037074  -0.012023  -0.072882   0.009348
   92  H  7  S    0.000175   0.004104  -0.004089  -0.016059   0.004417
   93  H  8  S    0.000080   0.040426   0.066429  -0.046606  -0.094882
   94  H  8  S   -0.000096   0.003250   0.014901  -0.007640  -0.033312
   95  H  9  S    0.000084   0.039088   0.067535  -0.046541  -0.094894
   96  H  9  S    0.000026   0.004088   0.015026  -0.008731  -0.033812
   97  H 10  S   -0.000074   0.039022   0.075198   0.031285   0.093859
   98  H 10  S    0.000022   0.003885   0.016345   0.005042   0.033623
   99  H 11  S   -0.000083   0.040120   0.075042   0.031350   0.095310
  100  H 11  S    0.000052   0.003417   0.016303   0.004585   0.033353
  101  H 12  S   -0.000034   0.037053   0.003601   0.073925  -0.008858
  102  H 12  S   -0.000163   0.004054  -0.000726   0.016598  -0.004347
  103  H 13  S    0.000102   0.038634  -0.053966   0.045971  -0.072860
  104  H 13  S   -0.000579   0.004015  -0.011921   0.004507  -0.020299
  105  H 14  S   -0.000143   0.038664  -0.062440  -0.033481   0.072744
  106  H 14  S    0.000855   0.003965  -0.012606  -0.001802   0.020285

                     11         12         13         14         15
                   -0.8028    -0.6800    -0.6501    -0.6193    -0.5869
                     A          A          A          A          A   
    1  C  1  S   -0.100520   0.005465   0.061338   0.013250   0.004435
    2  C  1  S    0.197510  -0.008851  -0.124662  -0.025117  -0.007260
    3  C  1  X    0.054275  -0.179837  -0.137346  -0.023838  -0.169120
    4  C  1  Y   -0.035667   0.099335   0.006121   0.024211  -0.219997
    5  C  1  Z    0.008011  -0.027430  -0.032396   0.074802   0.011489
    6  C  1  S    0.178241  -0.030290  -0.098131  -0.034357  -0.035434
    7  C  1  X    0.041072  -0.067664  -0.100734  -0.013145  -0.054202
    8  C  1  Y   -0.013315   0.040959   0.020433   0.009029  -0.085914
    9  C  1  Z    0.005474  -0.010407  -0.019407   0.033163   0.006286
   10  C  1 XX    0.008831  -0.003051  -0.009661  -0.001644   0.004249
   11  C  1 YY    0.003252  -0.002525   0.000397   0.002173  -0.009338
   12  C  1 ZZ   -0.007303   0.000155   0.004359  -0.000544   0.001209
   13  C  1 XY   -0.005363   0.004960   0.015781   0.002854   0.007943
   14  C  1 XZ    0.002455  -0.000995  -0.002694  -0.002375  -0.000400
   15  C  1 YZ   -0.001807   0.000711   0.000729   0.005698   0.002741
   16  C  2  S    0.037073   0.002057  -0.043784  -0.009656  -0.000976
   17  C  2  S   -0.070342  -0.001268   0.083167   0.018010  -0.000981
   18  C  2  X    0.020620  -0.128537   0.082530   0.023482  -0.046468
   19  C  2  Y   -0.128553  -0.060957   0.078502   0.034283   0.231852
   20  C  2  Z    0.011231  -0.007958  -0.072470   0.288566  -0.005019
   21  C  2  S   -0.078540  -0.012229   0.101366   0.030001   0.006314
   22  C  2  X    0.000196  -0.054109   0.055935   0.011490  -0.022991
   23  C  2  Y   -0.042462  -0.024402   0.043419   0.016121   0.102060
   24  C  2  Z    0.002079  -0.004160  -0.033912   0.137443  -0.001126
   25  C  2 XX   -0.007106   0.003121   0.002352   0.002687   0.007100
   26  C  2 YY    0.009245   0.003092  -0.012110  -0.000051  -0.009563
   27  C  2 ZZ   -0.005338  -0.008702   0.012494  -0.002332   0.003866
   28  C  2 XY    0.003750   0.001247   0.007764   0.004599  -0.003090
   29  C  2 XZ   -0.000263  -0.001825  -0.002744   0.014652   0.001210
   30  C  2 YZ   -0.002341  -0.001825   0.000941   0.011233   0.003105
   31  C  3  S    0.037470   0.002393   0.043793   0.009662  -0.000905
   32  C  3  S   -0.071084  -0.001848  -0.083298  -0.017500  -0.001181
   33  C  3  X   -0.121459   0.012304  -0.029658  -0.012362   0.223123
   34  C  3  Y   -0.047575  -0.141894  -0.110824  -0.032529   0.074720
   35  C  3  Z   -0.005190   0.001012  -0.063027   0.290652   0.004462
   36  C  3  S   -0.079553  -0.012841  -0.101304  -0.030932   0.006251
   37  C  3  X   -0.036639   0.006301  -0.010822  -0.005356   0.099730
   38  C  3  Y   -0.021421  -0.059574  -0.070328  -0.015651   0.030576
   39  C  3  Z    0.000114   0.001268  -0.029371   0.138569   0.001285
   40  C  3 XX    0.002368   0.002277   0.014309   0.003192  -0.003046
   41  C  3 YY   -0.000063   0.004334  -0.004895  -0.003289   0.000274
   42  C  3 ZZ   -0.005563  -0.009131  -0.012098  -0.000400   0.004188
   43  C  3 XY    0.010148   0.000740   0.003450   0.000033  -0.009984
   44  C  3 XZ    0.001131   0.000289   0.000775   0.002371  -0.001057
   45  C  3 YZ    0.000697   0.000982  -0.002514   0.018745  -0.001178
   46  C  4  S   -0.100515   0.004840  -0.061317  -0.013264   0.003757
   47  C  4  S    0.197530  -0.007470   0.124570   0.025553  -0.005964
   48  C  4  X   -0.058943   0.177581  -0.079842  -0.020934  -0.101266
   49  C  4  Y    0.028136  -0.102946   0.116554   0.012656  -0.260457
   50  C  4  Z   -0.005111   0.014903  -0.022153   0.078385  -0.007081
   51  C  4  S    0.178292  -0.030151   0.098503   0.033199  -0.033674
   52  C  4  X   -0.032567   0.069089  -0.070971  -0.009894  -0.045231
   53  C  4  Y    0.028551  -0.036297   0.076950   0.008495  -0.091506
   54  C  4  Z   -0.003490   0.005759  -0.012255   0.034769  -0.003558
   55  C  4 XX    0.008968  -0.006355   0.014366   0.001660  -0.012227
   56  C  4 YY    0.003370   0.000816  -0.004981  -0.001166   0.006796
   57  C  4 ZZ   -0.007573   0.000217  -0.004445  -0.000310   0.001415
   58  C  4 XY   -0.005532   0.002619  -0.012814  -0.003222  -0.003053
   59  C  4 XZ    0.001549  -0.000648   0.000683   0.006032  -0.001418
   60  C  4 YZ   -0.000479   0.000240  -0.001394   0.001033  -0.000326
   61  C  5  S    0.056812   0.004272   0.065681   0.012895  -0.006512
   62  C  5  S   -0.114411  -0.006920  -0.133357  -0.024712   0.010519
   63  C  5  X   -0.065078   0.190476   0.110196   0.032147  -0.133273
   64  C  5  Y    0.190353   0.120453   0.050638   0.022727   0.241812
   65  C  5  Z   -0.013170   0.012159   0.001812   0.053501  -0.020888
   66  C  5  S   -0.098277  -0.024164  -0.094081  -0.034455   0.005776
   67  C  5  X   -0.004540   0.071436   0.092228   0.015218  -0.046333
   68  C  5  Y    0.062261   0.048011   0.066710   0.013943   0.089798
   69  C  5  Z   -0.002317   0.004120   0.002264   0.028784  -0.007610
   70  C  5 XX   -0.014748  -0.004122  -0.008042  -0.003062  -0.008832
   71  C  5 YY    0.003013  -0.002463   0.001009   0.000802   0.005835
   72  C  5 ZZ    0.004750   0.000456   0.003959   0.001213   0.000087
   73  C  5 XY    0.001990  -0.004722  -0.015894  -0.004626   0.004786
   74  C  5 XZ   -0.002402  -0.000175  -0.000915   0.001814  -0.001240
   75  C  5 YZ    0.000690  -0.000157  -0.002003   0.003469   0.000426
   76  C  6  S    0.057061   0.003624  -0.065636  -0.013076  -0.006778
   77  C  6  S   -0.114870  -0.005507   0.133257   0.024928   0.010917
   78  C  6  X    0.196533   0.008022   0.013750  -0.016643   0.272984
   79  C  6  Y    0.040850   0.224145  -0.125453  -0.027089   0.003826
   80  C  6  Z    0.015805  -0.016672   0.002365   0.051297   0.031324
   81  C  6  S   -0.098690  -0.024383   0.094155   0.034902   0.007507
   82  C  6  X    0.055739   0.005147  -0.010333  -0.008696   0.099512
   83  C  6  Y    0.027783   0.084055  -0.115448  -0.013663   0.004185
   84  C  6  Z    0.003183  -0.006012   0.002985   0.027896   0.012258
   85  C  6 XX   -0.003082   0.000584  -0.010652  -0.003362  -0.001845
   86  C  6 YY   -0.008623  -0.007051   0.017818   0.005113  -0.000949
   87  C  6 ZZ    0.004706   0.000372  -0.003936  -0.001138   0.000017
   88  C  6 XY    0.009868  -0.001449   0.003302  -0.000377   0.009477
   89  C  6 XZ   -0.001674   0.000078  -0.001651   0.001974  -0.000626
   90  C  6 YZ    0.002390   0.000806  -0.002548   0.003097   0.001458
   91  H  7  S    0.114575  -0.118937  -0.134679  -0.027359  -0.025012
   92  H  7  S    0.044737  -0.073367  -0.072774  -0.017883  -0.023567
   93  H  8  S   -0.039792  -0.039504   0.107859  -0.131647   0.015930
   94  H  8  S   -0.018154  -0.026409   0.064233  -0.097515   0.014583
   95  H  9  S   -0.042049  -0.059944   0.053473   0.154081   0.035944
   96  H  9  S   -0.017375  -0.038776   0.027833   0.112220   0.028920
   97  H 10  S   -0.042205  -0.054131  -0.052917  -0.158281   0.030010
   98  H 10  S   -0.017463  -0.034806  -0.027690  -0.115473   0.024368
   99  H 11  S   -0.040460  -0.046952  -0.105619   0.127903   0.021075
  100  H 11  S   -0.018420  -0.031094  -0.062582   0.094854   0.018435
  101  H 12  S    0.114570  -0.117526   0.136163   0.025214  -0.026823
  102  H 12  S    0.044794  -0.072788   0.073778   0.016478  -0.024900
  103  H 13  S   -0.070509  -0.128133  -0.135210  -0.039068  -0.004621
  104  H 13  S   -0.027286  -0.080541  -0.065454  -0.025053  -0.003313
  105  H 14  S   -0.070797  -0.127079   0.137825   0.032828  -0.001266
  106  H 14  S   -0.027436  -0.080335   0.067058   0.021273  -0.000765

                     16         17         18         19         20
                   -0.5699    -0.5355    -0.5094    -0.4688    -0.4564
                     A          A          A          A          A   
    1  C  1  S    0.022928   0.002072   0.002405  -0.006157   0.006912
    2  C  1  S   -0.049199  -0.005526  -0.005227   0.015402  -0.016263
    3  C  1  X    0.263084   0.004805   0.003248   0.079490   0.158101
    4  C  1  Y   -0.109733  -0.068770  -0.024877   0.259984  -0.123687
    5  C  1  Z    0.039875   0.009559  -0.100258  -0.022394   0.036935
    6  C  1  S   -0.036507  -0.010221  -0.005930   0.021475  -0.011802
    7  C  1  X    0.114849   0.008666   0.003097   0.031344   0.106085
    8  C  1  Y   -0.051438  -0.035178  -0.014127   0.125136  -0.076392
    9  C  1  Z    0.017550   0.005519  -0.051554  -0.012120   0.024423
   10  C  1 XX    0.006497   0.011657  -0.000361  -0.012610   0.014375
   11  C  1 YY    0.000377  -0.011542  -0.001993   0.015482  -0.008263
   12  C  1 ZZ    0.000390   0.000821   0.002127  -0.000549  -0.000434
   13  C  1 XY   -0.013905   0.003041   0.001590  -0.000951  -0.022424
   14  C  1 XZ    0.001740   0.001158   0.000404  -0.001198   0.002765
   15  C  1 YZ   -0.001547   0.001574  -0.005062  -0.002053  -0.001973
   16  C  2  S    0.008460   0.021156   0.003326  -0.005980  -0.004355
   17  C  2  S   -0.016530  -0.046912  -0.008242   0.017578   0.010898
   18  C  2  X    0.058269   0.278153   0.052350  -0.110841  -0.223184
   19  C  2  Y    0.084150   0.059783  -0.029707  -0.230589   0.169108
   20  C  2  Z   -0.010358   0.022236  -0.294369   0.017339  -0.050290
   21  C  2  S   -0.025134  -0.049276  -0.006466   0.005993   0.009077
   22  C  2  X    0.033262   0.143557   0.026716  -0.074610  -0.134553
   23  C  2  Y    0.039143   0.031288  -0.019254  -0.134820   0.087776
   24  C  2  Z   -0.004779   0.015273  -0.186455   0.010786  -0.033303
   25  C  2 XX    0.004704  -0.008315  -0.004067  -0.010881   0.009868
   26  C  2 YY   -0.009363  -0.003810  -0.003398   0.020523  -0.004170
   27  C  2 ZZ    0.004712   0.014879   0.008179  -0.012949  -0.007410
   28  C  2 XY   -0.004195   0.010309  -0.001030  -0.007307  -0.016384
   29  C  2 XZ    0.001494   0.003992  -0.028729  -0.001583  -0.003733
   30  C  2 YZ    0.000813   0.003513  -0.002835  -0.004726  -0.001876
   31  C  3  S   -0.008551   0.021054   0.001940   0.005918  -0.004184
   32  C  3  S    0.016902  -0.046842  -0.005443  -0.017501   0.010325
   33  C  3  X   -0.045048  -0.089080  -0.044124   0.144800   0.259579
   34  C  3  Y   -0.097018   0.269237   0.042404   0.210770  -0.105550
   35  C  3  Z   -0.024463  -0.032529   0.294486  -0.000691   0.032957
   36  C  3  S    0.025038  -0.048871  -0.001401  -0.005675   0.010081
   37  C  3  X   -0.017699  -0.045644  -0.024875   0.079724   0.144427
   38  C  3  Y   -0.050415   0.139385   0.020732   0.131821  -0.072384
   39  C  3  Z   -0.013278  -0.020824   0.186566  -0.001027   0.023996
   40  C  3 XX    0.002803  -0.012763  -0.003774  -0.018085   0.011927
   41  C  3 YY    0.002291   0.000092  -0.001572   0.008091  -0.005515
   42  C  3 ZZ   -0.005225   0.015467   0.006057   0.013303  -0.008210
   43  C  3 XY    0.009302   0.007155   0.000700  -0.012449  -0.014957
   44  C  3 XZ    0.000346  -0.000294  -0.011569  -0.001351  -0.001306
   45  C  3 YZ   -0.000453  -0.004143   0.027112  -0.003106   0.002481
   46  C  4  S   -0.023152   0.002004   0.001091   0.006145   0.007055
   47  C  4  S    0.049663  -0.005548  -0.001670  -0.015485  -0.016244
   48  C  4  X    0.232827  -0.062126  -0.001839  -0.184824  -0.190061
   49  C  4  Y   -0.165626  -0.030765  -0.027825  -0.198959   0.074894
   50  C  4  Z    0.016352  -0.009852   0.101546  -0.016425   0.001754
   51  C  4  S    0.037556  -0.008571  -0.007668  -0.020760  -0.014863
   52  C  4  X    0.104798  -0.034495  -0.003862  -0.092378  -0.123224
   53  C  4  Y   -0.070891  -0.010881  -0.012198  -0.089958   0.054254
   54  C  4  Z    0.007460  -0.005515   0.052072  -0.008633   0.001600
   55  C  4 XX   -0.012301  -0.007884  -0.003724  -0.008856   0.014830
   56  C  4 YY    0.005449   0.007961   0.001746   0.005985  -0.008487
   57  C  4 ZZ   -0.000321   0.000811   0.001409   0.000568  -0.000593
   58  C  4 XY    0.009915  -0.010327   0.001005  -0.013898  -0.022134
   59  C  4 XZ   -0.001592  -0.000806   0.004648  -0.000868   0.001904
   60  C  4 YZ    0.000340  -0.001408   0.002367  -0.001306  -0.002455
   61  C  5  S   -0.008733  -0.019529  -0.002700   0.000485  -0.002558
   62  C  5  S    0.020454   0.044109   0.005705   0.003573   0.007095
   63  C  5  X    0.116716   0.234777  -0.004692   0.075859   0.185621
   64  C  5  Y    0.179966   0.035209   0.028086   0.177946  -0.103388
   65  C  5  Z    0.005925   0.018775   0.041657   0.000296   0.039305
   66  C  5  S   -0.003361   0.036381   0.007061  -0.031441   0.017473
   67  C  5  X    0.051233   0.108078  -0.002309   0.054084   0.107380
   68  C  5  Y    0.069871   0.021214   0.011097   0.085605  -0.030346
   69  C  5  Z    0.002154   0.007826   0.030574   0.000823   0.022992
   70  C  5 XX   -0.018229   0.000517  -0.000935  -0.014316   0.003399
   71  C  5 YY    0.010282  -0.004663   0.000982   0.007105  -0.004947
   72  C  5 ZZ    0.000547  -0.000040  -0.000294   0.001061  -0.000193
   73  C  5 XY   -0.003383  -0.016753  -0.000383  -0.017276  -0.018136
   74  C  5 XZ   -0.001473   0.000944  -0.001354  -0.001101   0.001561
   75  C  5 YZ   -0.000999  -0.001526   0.005939  -0.002031  -0.000609
   76  C  6  S    0.008953  -0.019623  -0.000422  -0.000356  -0.002487
   77  C  6  S   -0.020868   0.044107   0.001557  -0.003766   0.007198
   78  C  6  X   -0.102139  -0.088330   0.018280  -0.116063  -0.185087
   79  C  6  Y   -0.192293   0.219463  -0.004083  -0.155926   0.109938
   80  C  6  Z    0.010024  -0.024456  -0.041744  -0.002506  -0.013756
   81  C  6  S    0.003240   0.038100  -0.002423   0.030897   0.014937
   82  C  6  X   -0.036647  -0.035904   0.008436  -0.047058  -0.082148
   83  C  6  Y   -0.079520   0.104568  -0.006476  -0.090277   0.077056
   84  C  6  Z    0.005209  -0.011548  -0.030426   0.000734  -0.005600
   85  C  6 XX   -0.005558   0.009245   0.000884  -0.014523   0.010908
   86  C  6 YY    0.013412  -0.013394   0.000076   0.021797  -0.012406
   87  C  6 ZZ   -0.000410  -0.000078  -0.000366  -0.001077  -0.000220
   88  C  6 XY   -0.012838  -0.010771  -0.000291  -0.002468  -0.013051
   89  C  6 XZ    0.000386   0.002065  -0.005744  -0.001878   0.002330
   90  C  6 YZ   -0.002376   0.000396  -0.002008  -0.002689   0.000514
   91  H  7  S    0.158010   0.026340  -0.002232  -0.043088   0.151663
   92  H  7  S    0.126236   0.020030  -0.004227  -0.040045   0.141109
   93  H  8  S    0.025465   0.062948   0.187528  -0.074360  -0.020774
   94  H  8  S    0.021035   0.058292   0.161229  -0.068153  -0.019566
   95  H  9  S    0.028388   0.112489  -0.141508  -0.094569  -0.073622
   96  H  9  S    0.023270   0.097557  -0.119052  -0.089228  -0.069572
   97  H 10  S   -0.019698   0.111401  -0.142439   0.094929  -0.064669
   98  H 10  S   -0.016795   0.096783  -0.120482   0.089712  -0.059655
   99  H 11  S   -0.037806   0.064580   0.187790   0.072938  -0.031119
  100  H 11  S   -0.030436   0.059482   0.161475   0.066789  -0.030116
  101  H 12  S   -0.157192   0.026500  -0.015235   0.043926   0.151346
  102  H 12  S   -0.125465   0.020218  -0.015608   0.040941   0.140632
  103  H 13  S   -0.115892  -0.125499  -0.006087  -0.125479  -0.078870
  104  H 13  S   -0.092730  -0.107905  -0.006639  -0.115653  -0.070490
  105  H 14  S    0.116292  -0.125166   0.000838   0.125412  -0.079482
  106  H 14  S    0.093142  -0.107265  -0.001230   0.115515  -0.071529

                     21         22         23         24         25
                   -0.4228    -0.2885     0.1312     0.2313     0.2691
                     A          A          A          A          A   
    1  C  1  S   -0.002210  -0.000539  -0.000227  -0.029088   0.022806
    2  C  1  S    0.002967   0.000840  -0.002507   0.064482  -0.000786
    3  C  1  X   -0.030374   0.030348  -0.027595   0.068830  -0.052945
    4  C  1  Y    0.029645  -0.026882   0.029528  -0.032808   0.051396
    5  C  1  Z    0.198718  -0.290731   0.282411   0.006896  -0.066298
    6  C  1  S    0.020192   0.004514   0.012681   0.313997  -0.446684
    7  C  1  X   -0.031217   0.024852  -0.038573   0.194251  -0.307076
    8  C  1  Y    0.026410  -0.018131   0.067060  -0.183946  -0.045027
    9  C  1  Z    0.153062  -0.269560   0.493229   0.023196  -0.133223
   10  C  1 XX    0.001809  -0.002434  -0.002528  -0.001206   0.015332
   11  C  1 YY   -0.000779   0.001770   0.000983   0.006450  -0.002660
   12  C  1 ZZ   -0.001630   0.000554   0.001084  -0.002868  -0.001264
   13  C  1 XY    0.000585   0.000072  -0.000285   0.011206  -0.003270
   14  C  1 XZ   -0.016973   0.015256   0.009945  -0.002555  -0.003521
   15  C  1 YZ   -0.010093   0.011286   0.004841  -0.001074  -0.006539
   16  C  2  S   -0.000736  -0.000752  -0.000965  -0.067043  -0.037372
   17  C  2  S    0.003659   0.003540   0.000169   0.054791   0.003297
   18  C  2  X    0.009882  -0.012115  -0.003979   0.095435   0.080134
   19  C  2  Y   -0.019345   0.011409   0.006702   0.054706   0.051165
   20  C  2  Z   -0.077508   0.083685   0.003031  -0.001469  -0.044575
   21  C  2  S   -0.008888  -0.004428   0.012921   1.134803   0.923031
   22  C  2  X    0.019916  -0.003514  -0.016818   0.403373   0.433241
   23  C  2  Y   -0.004904   0.015430   0.046333   0.139930   0.067970
   24  C  2  Z   -0.039475   0.086225   0.038023  -0.030770  -0.204685
   25  C  2 XX   -0.001567   0.001584  -0.001191  -0.007612   0.001098
   26  C  2 YY   -0.001435   0.003898  -0.004479   0.003772   0.001739
   27  C  2 ZZ    0.003596  -0.005253   0.005510  -0.011198  -0.011959
   28  C  2 XY    0.000474  -0.000411   0.001388  -0.009360   0.005071
   29  C  2 XZ   -0.007354   0.012893  -0.007493  -0.000844   0.002374
   30  C  2 YZ   -0.011358   0.012753  -0.021602  -0.001064   0.005196
   31  C  3  S    0.001295  -0.002740   0.005075  -0.067133  -0.035894
   32  C  3  S   -0.004962   0.006478  -0.006791   0.054892   0.004332
   33  C  3  X   -0.014111   0.014613  -0.011338  -0.000872   0.009218
   34  C  3  Y    0.013175  -0.011193   0.004362   0.110046   0.099529
   35  C  3  Z   -0.081419  -0.084009   0.003283   0.003737  -0.001440
   36  C  3  S    0.009303   0.015010  -0.058293   1.133953   0.880683
   37  C  3  X   -0.006922   0.012534  -0.045331  -0.080045  -0.134941
   38  C  3  Y   -0.003460  -0.002591  -0.014388   0.416036   0.445662
   39  C  3  Z   -0.042124  -0.086873   0.040669   0.039488   0.038065
   40  C  3 XX   -0.000435   0.002659   0.001893   0.008010  -0.002806
   41  C  3 YY    0.001127   0.000929   0.000764  -0.011693   0.005019
   42  C  3 ZZ   -0.000955  -0.003238  -0.002250  -0.011361  -0.010988
   43  C  3 XY    0.000968   0.000800   0.000689   0.001168   0.002294
   44  C  3 XZ   -0.006258  -0.004941  -0.015448  -0.000606  -0.005771
   45  C  3 YZ   -0.012608  -0.017977  -0.017861  -0.000394  -0.002951
   46  C  4  S    0.001173  -0.001332  -0.000121  -0.028840   0.022782
   47  C  4  S   -0.001032   0.003897   0.000777   0.064390  -0.004819
   48  C  4  X   -0.008609  -0.018596  -0.021768  -0.064105   0.072372
   49  C  4  Y    0.000047   0.003453   0.001782   0.042650  -0.018340
   50  C  4  Z    0.202609   0.292714   0.284969   0.005352   0.076484
   51  C  4  S   -0.014928   0.003641   0.001899   0.311480  -0.405922
   52  C  4  X   -0.014130  -0.018410  -0.044710  -0.257903   0.138434
   53  C  4  Y    0.002544   0.003558  -0.013130   0.076745  -0.288018
   54  C  4  Z    0.156558   0.270274   0.496962   0.010805   0.179083
   55  C  4 XX   -0.001113   0.000746  -0.000655  -0.004126   0.004788
   56  C  4 YY    0.000109  -0.000643   0.001088   0.009350   0.008103
   57  C  4 ZZ    0.000900   0.000070  -0.000544  -0.002749  -0.001658
   58  C  4 XY    0.002886   0.001987  -0.001252   0.009291  -0.010816
   59  C  4 XZ   -0.000161  -0.001904  -0.000921   0.000167   0.000724
   60  C  4 YZ   -0.019658  -0.018946   0.011081   0.002645   0.007344
   61  C  5  S    0.000843   0.000578  -0.000576  -0.029868   0.033223
   62  C  5  S   -0.002298  -0.001640   0.001532   0.051448  -0.013181
   63  C  5  X   -0.040008  -0.023582   0.018290  -0.056393   0.135980
   64  C  5  Y    0.012966   0.007710  -0.002612  -0.031399   0.092552
   65  C  5  Z    0.292344   0.235615  -0.209380  -0.028976  -0.091095
   66  C  5  S    0.004691   0.002582  -0.004596   0.372783  -0.798758
   67  C  5  X   -0.022427  -0.018155   0.037857  -0.153754   0.434289
   68  C  5  Y    0.009550   0.005066  -0.028307  -0.117665   0.181147
   69  C  5  Z    0.207863   0.227920  -0.353055  -0.066764  -0.200545
   70  C  5 XX   -0.001419   0.001032   0.001323  -0.004848   0.010145
   71  C  5 YY   -0.000138   0.001231   0.001687   0.004638  -0.006001
   72  C  5 ZZ    0.001785  -0.002467  -0.003103  -0.000227   0.003619
   73  C  5 XY    0.001163  -0.002269  -0.002808  -0.010382   0.010121
   74  C  5 XZ    0.009847  -0.008373  -0.009289   0.001175   0.004941
   75  C  5 YZ    0.009299   0.022594   0.026730  -0.000821   0.002835
   76  C  6  S    0.001331   0.000072   0.001609  -0.029329   0.035747
   77  C  6  S   -0.002055  -0.000065  -0.005836   0.050157  -0.017523
   78  C  6  X   -0.020508   0.024928   0.021507   0.001753   0.012564
   79  C  6  Y    0.019448  -0.018000  -0.019945  -0.065091   0.164923
   80  C  6  Z    0.293959  -0.235158  -0.208254   0.021954   0.081906
   81  C  6  S   -0.016870  -0.006573   0.000812   0.368662  -0.811025
   82  C  6  X   -0.016870   0.028384   0.051929  -0.025449  -0.057338
   83  C  6  Y    0.006473  -0.019498  -0.025996  -0.188383   0.494849
   84  C  6  Z    0.208671  -0.226052  -0.351952   0.057099   0.167892
   85  C  6 XX   -0.001040   0.004502  -0.005961   0.009850  -0.009096
   86  C  6 YY    0.001982  -0.001422   0.001622  -0.010189   0.013748
   87  C  6 ZZ   -0.000829  -0.003412   0.003790  -0.000164   0.003693
   88  C  6 XY    0.000132  -0.001431   0.001542  -0.000318  -0.003189
   89  C  6 XZ    0.002601  -0.023438   0.027382   0.002640   0.001663
   90  C  6 YZ    0.013275  -0.004281   0.005552   0.000237  -0.006713
   91  H  7  S   -0.008868   0.000926   0.000633  -0.017725   0.022599
   92  H  7  S   -0.006607   0.004313   0.000280  -0.587434   0.559713
   93  H  8  S    0.057582  -0.078795   0.056255  -0.010594  -0.028074
   94  H  8  S    0.063460  -0.101777   0.201842  -0.738586  -0.791648
   95  H  9  S   -0.047955   0.064019  -0.048314  -0.015209   0.016613
   96  H  9  S   -0.063462   0.074828  -0.177686  -0.805204  -0.375481
   97  H 10  S    0.057597   0.066020   0.053072  -0.011254   0.009597
   98  H 10  S    0.072147   0.076058   0.213248  -0.758566  -0.540609
   99  H 11  S   -0.051807  -0.077663  -0.054049  -0.014717  -0.020097
  100  H 11  S   -0.058769  -0.102159  -0.171260  -0.783801  -0.608153
  101  H 12  S   -0.008114  -0.001504  -0.000666  -0.017524   0.023282
  102  H 12  S   -0.010176  -0.001936   0.001301  -0.585964   0.559020
  103  H 13  S    0.007347   0.000863  -0.001656  -0.025732   0.021897
  104  H 13  S    0.008155   0.001704  -0.004755  -0.535300   0.987578
  105  H 14  S    0.002247  -0.002701   0.004130  -0.025159   0.024013
  106  H 14  S    0.000247  -0.003335   0.016333  -0.529682   1.020970

                     26         27         28         29         30
                    0.2823     0.2897     0.2965     0.3208     0.3222
                     A          A          A          A          A   
    1  C  1  S   -0.005583   0.002380   0.039119  -0.011980  -0.085430
    2  C  1  S   -0.004861   0.003746  -0.047398  -0.028128   0.083875
    3  C  1  X    0.037671  -0.042253  -0.159588   0.048048   0.103099
    4  C  1  Y   -0.027667   0.040976   0.095209   0.014473   0.014256
    5  C  1  Z   -0.070960   0.194022  -0.050202   0.012149  -0.011432
    6  C  1  S    0.220584  -0.040591  -0.821310   0.459053   1.621593
    7  C  1  X    0.091125  -0.161829  -0.654792   0.191987   0.526778
    8  C  1  Y   -0.112656   0.017583   0.530272   0.383253  -0.199649
    9  C  1  Z   -0.310085   0.424365  -0.209398  -0.001379   0.009816
   10  C  1 XX    0.001425   0.002303   0.001392   0.002476   0.005344
   11  C  1 YY    0.001950  -0.000423  -0.002440  -0.011272  -0.008020
   12  C  1 ZZ   -0.004084   0.001052   0.003743   0.001130  -0.002715
   13  C  1 XY   -0.000133  -0.000191  -0.005039   0.007601  -0.002768
   14  C  1 XZ   -0.010557   0.018120  -0.002791  -0.001182  -0.000464
   15  C  1 YZ    0.009702   0.015291   0.001130   0.000534  -0.001251
   16  C  2  S   -0.000263  -0.009002   0.039149   0.108172   0.043118
   17  C  2  S   -0.002874  -0.001466   0.028124  -0.038484  -0.040260
   18  C  2  X    0.033989   0.038354  -0.097920  -0.009180   0.002082
   19  C  2  Y    0.023302   0.035838  -0.024287  -0.067905   0.074304
   20  C  2  Z    0.221384   0.041319   0.043148  -0.004536  -0.004262
   21  C  2  S    0.058306   0.238582  -1.157467  -2.275874  -0.730171
   22  C  2  X    0.149410   0.167359   0.031933   0.133392  -0.206630
   23  C  2  Y    0.155417   0.069582  -0.174978  -0.354665   0.362505
   24  C  2  Z    0.813907   0.277958   0.152422  -0.024608  -0.035463
   25  C  2 XX    0.001969  -0.003329  -0.000414   0.010305  -0.014455
   26  C  2 YY   -0.001083  -0.002890   0.005863   0.002602   0.018481
   27  C  2 ZZ   -0.001423   0.002887   0.006886   0.002194  -0.003668
   28  C  2 XY   -0.002167   0.002770   0.006960  -0.008904  -0.000078
   29  C  2 XZ   -0.014201  -0.006213  -0.003397   0.000766  -0.000074
   30  C  2 YZ    0.003764  -0.017603   0.002789  -0.000397  -0.000060
   31  C  3  S   -0.000768  -0.019720  -0.037272  -0.109140   0.038678
   32  C  3  S    0.001093  -0.005771  -0.027467   0.040055  -0.039308
   33  C  3  X    0.008695  -0.008725  -0.027094   0.051549   0.068153
   34  C  3  Y   -0.024439   0.065736   0.090140   0.039044   0.040474
   35  C  3  Z    0.230040  -0.004819   0.052883  -0.009318  -0.009694
   36  C  3  S    0.001422   0.527910   1.106610   2.284550  -0.633895
   37  C  3  X   -0.042187  -0.068998   0.177863   0.360297   0.452446
   38  C  3  Y   -0.123749   0.167404   0.045242   0.057079   0.001146
   39  C  3  Z    0.872999  -0.132939   0.209447  -0.032371  -0.014285
   40  C  3 XX   -0.000407  -0.002999   0.001784  -0.011555   0.009459
   41  C  3 YY    0.000545  -0.001743  -0.006242  -0.001233  -0.006231
   42  C  3 ZZ    0.000285  -0.001387  -0.007188  -0.002118  -0.003533
   43  C  3 XY    0.002905   0.001449  -0.006734   0.007633   0.016766
   44  C  3 XZ    0.007690   0.014178   0.001476  -0.001247  -0.001204
   45  C  3 YZ   -0.012939   0.012508  -0.004031  -0.000206   0.000362
   46  C  4  S    0.008220  -0.002760  -0.038232   0.015216  -0.085327
   47  C  4  S   -0.001211   0.021151   0.044069   0.024624   0.084124
   48  C  4  X    0.046339   0.020165  -0.169659   0.013464  -0.040151
   49  C  4  Y   -0.018143  -0.005831   0.090802  -0.051652   0.095086
   50  C  4  Z   -0.032284  -0.206223  -0.003032   0.019745   0.013801
   51  C  4  S   -0.243769  -0.033881   0.815170  -0.519801   1.619950
   52  C  4  X    0.140998  -0.093692  -0.795190  -0.214834  -0.451234
   53  C  4  Y   -0.067077  -0.090645   0.306442  -0.366368   0.344019
   54  C  4  Z   -0.227977  -0.492069  -0.083111   0.039401   0.018365
   55  C  4 XX   -0.001095   0.000383  -0.002272   0.013640  -0.001755
   56  C  4 YY   -0.000822   0.003232   0.003145  -0.004712  -0.000745
   57  C  4 ZZ    0.002694   0.000007  -0.003973  -0.001068  -0.002844
   58  C  4 XY   -0.002535   0.000005   0.004219   0.003450  -0.008095
   59  C  4 XZ    0.014657  -0.001533   0.003468   0.000457  -0.000190
   60  C  4 YZ    0.000388  -0.023288   0.002154   0.001071   0.001572
   61  C  5  S    0.006523   0.016951  -0.012898   0.049946   0.041624
   62  C  5  S   -0.001097  -0.009371  -0.006838  -0.048424  -0.044664
   63  C  5  X    0.035792   0.014401  -0.096180   0.038607   0.083474
   64  C  5  Y    0.011839   0.049314  -0.035982   0.054027   0.014240
   65  C  5  Z   -0.015256   0.287538  -0.029566  -0.009698  -0.020084
   66  C  5  S   -0.163653  -0.350808   0.589465  -0.934340  -0.865951
   67  C  5  X    0.067316   0.166521  -0.010967   0.277858   0.540085
   68  C  5  Y    0.093432   0.102558  -0.324417   0.403563  -0.060106
   69  C  5  Z    0.023012   0.722245  -0.034642  -0.039027  -0.023561
   70  C  5 XX   -0.001553   0.006505   0.007450   0.002847  -0.008454
   71  C  5 YY    0.000890   0.000052  -0.004084   0.001730   0.003301
   72  C  5 ZZ    0.002222  -0.002123  -0.002537   0.001407   0.004366
   73  C  5 XY    0.003207   0.000333  -0.007838  -0.004062   0.002752
   74  C  5 XZ    0.008470  -0.015065   0.004288   0.000695   0.000265
   75  C  5 YZ   -0.002238  -0.004488  -0.000848   0.000933   0.000368
   76  C  6  S   -0.000284   0.010705   0.011530  -0.052002   0.040274
   77  C  6  S   -0.001626   0.004692   0.006403   0.048805  -0.043469
   78  C  6  X    0.001636   0.024134  -0.022879  -0.027710  -0.029593
   79  C  6  Y   -0.002416   0.046404   0.099444  -0.065055   0.078304
   80  C  6  Z    0.041601  -0.289122   0.020510   0.013511   0.018644
   81  C  6  S   -0.005132  -0.369603  -0.555090   0.984943  -0.838512
   82  C  6  X   -0.078490   0.014435   0.269720  -0.196741  -0.329988
   83  C  6  Y   -0.003744   0.120427   0.165632  -0.463578   0.426603
   84  C  6  Z    0.152079  -0.708635   0.098844   0.029800   0.006793
   85  C  6 XX    0.001089  -0.001687  -0.005039  -0.005418  -0.001659
   86  C  6 YY   -0.000362   0.005472   0.000747   0.000306  -0.003318
   87  C  6 ZZ   -0.001513  -0.001056   0.002822  -0.001371   0.004070
   88  C  6 XY   -0.003614  -0.000854   0.009783   0.002501   0.007167
   89  C  6 XZ   -0.005255  -0.005237  -0.002127   0.000901  -0.000933
   90  C  6 YZ    0.002680   0.016424   0.000209  -0.000113   0.000026
   91  H  7  S   -0.004423   0.006035   0.001046  -0.033816   0.001844
   92  H  7  S   -0.219346   0.150920   1.367330  -0.250559  -1.263760
   93  H  8  S    0.025709   0.060529   0.002441  -0.010405  -0.019631
   94  H  8  S    0.878989   0.235833   0.638382   0.776105   0.192406
   95  H  9  S   -0.030551  -0.053017  -0.002249  -0.010787  -0.013900
   96  H  9  S   -1.044132  -0.568922   0.354281   0.893296   0.196827
   97  H 10  S    0.040051  -0.050724   0.011928   0.013183  -0.014611
   98  H 10  S    1.065695  -0.520952  -0.229561  -0.876226   0.122244
   99  H 11  S   -0.037808   0.052449  -0.012971   0.008515  -0.016661
  100  H 11  S   -0.982268  -0.070029  -0.701922  -0.789935   0.212012
  101  H 12  S    0.006099   0.001202  -0.001320   0.033883   0.003967
  102  H 12  S    0.297465  -0.060091  -1.358446   0.297282  -1.263430
  103  H 13  S    0.004209   0.004414  -0.002993  -0.006514   0.000925
  104  H 13  S    0.218313   0.427526  -0.544188   0.826122   0.848309
  105  H 14  S   -0.001989   0.000395   0.002988   0.006715   0.001388
  106  H 14  S   -0.026262   0.391473   0.509057  -0.874183   0.829514

                     31         32         33         34         35
                    0.3488     0.3887     0.4099     0.4216     0.4625
                     A          A          A          A          A   
    1  C  1  S   -0.044808   0.014601   0.006725  -0.045070  -0.046849
    2  C  1  S    0.081081  -0.020740   0.035380   0.042398   0.042657
    3  C  1  X    0.047947   0.000828  -0.023526  -0.062963   0.002510
    4  C  1  Y   -0.036334  -0.023117   0.012412   0.234915   0.090215
    5  C  1  Z    0.014743  -0.017783   0.004578  -0.023134  -0.026373
    6  C  1  S    0.024774  -0.307367  -0.658790   0.954060   1.405007
    7  C  1  X    0.869206  -0.006091   0.218907  -0.565271   0.254800
    8  C  1  Y   -0.610383  -0.212889   0.446388   1.537683   0.473076
    9  C  1  Z    0.136818  -0.453633   0.059361  -0.267220  -0.097107
   10  C  1 XX   -0.011232  -0.000158   0.015074   0.007335   0.026651
   11  C  1 YY   -0.007200  -0.001686  -0.007549   0.004265  -0.024119
   12  C  1 ZZ    0.006139  -0.001990  -0.001138  -0.001089   0.002321
   13  C  1 XY   -0.007903   0.002546   0.019265   0.007508  -0.020866
   14  C  1 XZ   -0.000740  -0.009432  -0.001849  -0.001124   0.004175
   15  C  1 YZ    0.000816   0.006124   0.001942   0.001244   0.002456
   16  C  2  S    0.036924  -0.007316   0.051692   0.049785   0.012740
   17  C  2  S   -0.084350   0.004303  -0.035313  -0.001495  -0.032574
   18  C  2  X   -0.037603   0.019253   0.259845   0.012448  -0.033877
   19  C  2  Y    0.004805   0.016339  -0.036363   0.087579   0.232299
   20  C  2  Z    0.009138   0.264774  -0.027111   0.031006  -0.011472
   21  C  2  S   -0.102307   0.152897  -1.045157  -1.348125  -0.005640
   22  C  2  X   -0.599365   0.100733   1.610874   0.216155  -0.204169
   23  C  2  Y   -0.235165  -0.080742  -0.238177   1.189900   1.280141
   24  C  2  Z    0.069300   1.495860  -0.092541   0.068666  -0.046732
   25  C  2 XX    0.003432   0.000024   0.015908  -0.009318   0.000438
   26  C  2 YY    0.008129  -0.002243  -0.006610   0.027582  -0.000413
   27  C  2 ZZ   -0.004124   0.001912  -0.015134  -0.016141  -0.002521
   28  C  2 XY    0.000761  -0.002944  -0.010875   0.003899   0.015461
   29  C  2 XZ    0.000169   0.011650  -0.000420  -0.001581   0.002000
   30  C  2 YZ   -0.000684   0.003431  -0.004419  -0.004697  -0.001028
   31  C  3  S   -0.036974  -0.007958  -0.051771   0.050472  -0.012501
   32  C  3  S    0.084320  -0.004499   0.034716  -0.002416   0.033732
   33  C  3  X   -0.022487   0.014461   0.159929   0.067640  -0.214679
   34  C  3  Y    0.031046   0.009065  -0.204910   0.055238  -0.089379
   35  C  3  Z   -0.007104  -0.264976  -0.008540  -0.034767  -0.015513
   36  C  3  S    0.103207   0.232731   1.052834  -1.359010  -0.007515
   37  C  3  X   -0.098803  -0.045580   1.016160   0.909383  -1.205240
   38  C  3  Y    0.636769  -0.127991  -1.260756   0.785915  -0.475073
   39  C  3  Z   -0.024655  -1.489437   0.001068  -0.112846  -0.061008
   40  C  3 XX   -0.006306   0.000061  -0.008054   0.015552   0.012818
   41  C  3 YY   -0.005373  -0.003139  -0.001983   0.003285  -0.012030
[...]
   77  C  6  S   -0.127545  -0.006367
   78  C  6  X    0.040342  -0.002527
   79  C  6  Y    0.055364  -0.039004
   80  C  6  Z    0.004052  -0.076311
   81  C  6  S   -0.266544  -0.176840
   82  C  6  X    0.118083  -0.110516
   83  C  6  Y    1.233634  -0.113434
   84  C  6  Z   -0.250006  -0.291691
   85  C  6 XX    0.016132   0.003594
   86  C  6 YY   -0.003043   0.004217
   87  C  6 ZZ   -0.003585  -0.001430
   88  C  6 XY   -0.003575   0.006425
   89  C  6 XZ    0.005080  -0.000082
   90  C  6 YZ   -0.004906   0.004021
   91  H  7  S   -0.022465   0.027028
   92  H  7  S   -1.274816  -0.467958
   93  H  8  S   -0.000599   0.013152
   94  H  8  S    0.401196  -1.312161
   95  H  9  S    0.021364  -0.011735
   96  H  9  S    0.764489   1.120002
   97  H 10  S   -0.021367  -0.011739
   98  H 10  S   -0.762571   1.120823
   99  H 11  S    0.000582   0.013208
  100  H 11  S   -0.402078  -1.309763
  101  H 12  S    0.022484   0.026970
  102  H 12  S    1.274068  -0.468333
  103  H 13  S   -0.012489  -0.002039
  104  H 13  S   -1.408281  -0.000728
  105  H 14  S    0.012476  -0.002004
  106  H 14  S    1.408127  -0.001219

     ----------------------------------------------------------------
     PROPERTY VALUES FOR THE RHF   SELF-CONSISTENT FIELD WAVEFUNCTION
     ----------------------------------------------------------------

          -----------------
          ENERGY COMPONENTS
          -----------------

         WAVEFUNCTION NORMALIZATION =       1.0000000000

                ONE ELECTRON ENERGY =    -747.5353218286
                TWO ELECTRON ENERGY =     295.8632690144
           NUCLEAR REPULSION ENERGY =     219.8401552138
                                      ------------------
                       TOTAL ENERGY =    -231.8318976004

 ELECTRON-ELECTRON POTENTIAL ENERGY =     295.8632690144
  NUCLEUS-ELECTRON POTENTIAL ENERGY =    -979.2212309650
   NUCLEUS-NUCLEUS POTENTIAL ENERGY =     219.8401552138
                                      ------------------
             TOTAL POTENTIAL ENERGY =    -463.5178067368
               TOTAL KINETIC ENERGY =     231.6859091365
                 VIRIAL RATIO (V/T) =       2.0006301137

          ---------------------------------------
          MULLIKEN AND LOWDIN POPULATION ANALYSES
          ---------------------------------------

     ATOMIC MULLIKEN POPULATION IN EACH MOLECULAR ORBITAL

                      1          2          3          4          5

                  2.000000   2.000000   2.000000   2.000000   2.000000

    1             0.188200   0.606015   0.649521   0.379864   0.106239
    2             0.731368   0.419185   0.202068   0.643914   0.001241
    3             0.832019   0.363993   0.230360   0.570207   0.001220
    4             0.216828   0.537615   0.732208   0.337090   0.107220
    5             0.016087   0.033590   0.097101   0.031443   0.897895
    6             0.014280   0.038875   0.088363   0.036851   0.885898
    7             0.000050   0.000113   0.000084   0.000055   0.000002
    8             0.000270   0.000152   0.000042   0.000116   0.000000
    9             0.000243   0.000116   0.000020   0.000148  -0.000000
   10             0.000273   0.000098   0.000025   0.000132  -0.000000
   11             0.000302   0.000131   0.000047   0.000099   0.000000
   12             0.000056   0.000100   0.000096   0.000050   0.000002
   13             0.000012   0.000007   0.000033   0.000015   0.000141
   14             0.000011   0.000009   0.000030   0.000017   0.000140

                      6          7          8          9         10

                  2.000000   2.000000   2.000000   2.000000   2.000000

    1             0.070229   0.319653   0.513808   0.091655   0.175695
    2             0.000703   0.289470   0.155112   0.462706   0.422392
    3             0.000681   0.289349   0.154704   0.463036   0.422610
    4             0.069108   0.319505   0.514156   0.091419   0.175758
    5             0.923628   0.340056   0.247674   0.322541   0.199513
    6             0.935478   0.340105   0.247084   0.323130   0.199435
    7             0.000001   0.011893   0.048749   0.000340   0.000207
    8             0.000000   0.013513   0.009627   0.041831   0.078991
    9            -0.000000   0.013122   0.011985   0.048244   0.083029
   10            -0.000000   0.013111   0.011930   0.048274   0.083017
   11             0.000000   0.013488   0.009581   0.041806   0.079018
   12             0.000001   0.011891   0.048787   0.000332   0.000209
   13             0.000085   0.012422   0.013429   0.032313   0.040079
   14             0.000086   0.012421   0.013373   0.032371   0.040046

                     11         12         13         14         15

                  2.000000   2.000000   2.000000   2.000000   2.000000

    1             0.326691   0.255697   0.224440   0.069183   0.347709
    2             0.140262   0.145802   0.231886   0.437289   0.291568
    3             0.140200   0.145692   0.231753   0.436831   0.292122
    4             0.326590   0.255621   0.224399   0.069169   0.347062
    5             0.347800   0.293507   0.188012   0.129386   0.324474
    6             0.347812   0.293591   0.188080   0.129118   0.325515
    7             0.112790   0.115943   0.114917   0.006217   0.010049
    8             0.011661   0.004243   0.128916   0.097259   0.000038
    9             0.014719   0.051705   0.005213   0.184096   0.024062
   10             0.014726   0.051609   0.005199   0.183932   0.024001
   11             0.011636   0.004293   0.128836   0.097057   0.000050
   12             0.112772   0.115906   0.114977   0.006189   0.009656
   13             0.046160   0.133158   0.106676   0.077245   0.001785
   14             0.046180   0.133231   0.106696   0.077029   0.001909

                     16         17         18         19         20

                  2.000000   2.000000   2.000000   2.000000   2.000000

    1             0.421161   0.008381   0.080869   0.296826   0.199160
    2             0.081894   0.415076   0.543590   0.312937   0.344314
    3             0.081449   0.415027   0.543853   0.313678   0.343827
    4             0.421904   0.008327   0.080886   0.297555   0.198601
    5             0.172142   0.286593   0.027939   0.150879   0.182552
    6             0.171230   0.286811   0.027926   0.150654   0.182561
    7             0.222912   0.003869   0.006625   0.010897   0.149113
    8             0.024819   0.000208   0.316874   0.010309   0.017516
    9             0.000184   0.167319   0.023692   0.116607   0.058304
   10             0.000203   0.167349   0.023784   0.116481   0.058537
   11             0.024903   0.000206   0.317171   0.010392   0.017376
   12             0.223335   0.003841   0.006671   0.011065   0.148892
   13             0.076955   0.118381   0.000062   0.101083   0.049485
   14             0.076910   0.118612   0.000060   0.100637   0.049763

                     21         22

                  2.000000   2.000000

    1             0.307402   0.554558
    2             0.032772   0.031168
    3             0.032909   0.031194
    4             0.307291   0.554629
    5             0.611667   0.363760
    6             0.611712   0.363701
    7             0.000015  -0.000025
    8             0.022664   0.046409
    9             0.024288   0.003739
   10             0.024447   0.003757
   11             0.022685   0.046441
   12             0.000005  -0.000024
   13             0.001085   0.000346
   14             0.001058   0.000348

               ----- POPULATIONS IN EACH AO -----
                             MULLIKEN      LOWDIN
              1  C  1  S      1.99664     1.97985
              2  C  1  S      0.66431     0.35445
              3  C  1  X      0.74836     0.66416
              4  C  1  Y      0.69824     0.62881
              5  C  1  Z      0.53195     0.49505
              6  C  1  S      0.52160     0.30330
              7  C  1  X      0.29047     0.38624
              8  C  1  Y      0.23814     0.36585
              9  C  1  Z      0.44311     0.48046
             10  C  1 XX      0.02905     0.18451
             11  C  1 YY      0.01829     0.16723
             12  C  1 ZZ     -0.01603     0.10767
             13  C  1 XY      0.01535     0.02859
             14  C  1 XZ      0.00771     0.01238
             15  C  1 YZ      0.00575     0.01055
             16  C  2  S      1.99681     1.97944
             17  C  2  S      0.62938     0.34491
             18  C  2  X      0.68327     0.62070
             19  C  2  Y      0.67379     0.61259
             20  C  2  Z      0.69352     0.62558
             21  C  2  S      0.61339     0.30852
             22  C  2  X      0.31194     0.41256
             23  C  2  Y      0.26685     0.38451
             24  C  2  Z      0.38753     0.47518
             25  C  2 XX      0.01678     0.15199
             26  C  2 YY      0.01452     0.15378
             27  C  2 ZZ      0.02261     0.15643
             28  C  2 XY      0.01163     0.02039
             29  C  2 XZ      0.00833     0.01351
             30  C  2 YZ      0.00638     0.01098
             31  C  3  S      1.99681     1.97944
             32  C  3  S      0.62935     0.34468
             33  C  3  X      0.66910     0.60997
             34  C  3  Y      0.68757     0.62245
             35  C  3  Z      0.69371     0.62543
             36  C  3  S      0.61351     0.30847
             37  C  3  X      0.24406     0.37024
             38  C  3  Y      0.33320     0.42626
             39  C  3  Z      0.38915     0.47625
             40  C  3 XX      0.01303     0.15303
             41  C  3 YY      0.01783     0.15366
             42  C  3 ZZ      0.02246     0.15600
             43  C  3 XY      0.01170     0.01790
             44  C  3 XZ      0.00492     0.00887
             45  C  3 YZ      0.01030     0.01658
             46  C  4  S      1.99664     1.97992
             47  C  4  S      0.66431     0.35468
             48  C  4  X      0.68888     0.61748
             49  C  4  Y      0.75910     0.67624
             50  C  4  Z      0.53054     0.49377
             51  C  4  S      0.52161     0.30327
             52  C  4  X      0.31228     0.40619
             53  C  4  Y      0.21420     0.34441
             54  C  4  Z      0.44524     0.48147
             55  C  4 XX      0.02274     0.16479
             56  C  4 YY      0.02329     0.18426
             57  C  4 ZZ     -0.01628     0.10718
             58  C  4 XY      0.01703     0.03300
             59  C  4 XZ      0.00310     0.00536
             60  C  4 YZ      0.01024     0.01742
             61  C  5  S      1.99660     1.97981
             62  C  5  S      0.66522     0.35161
             63  C  5  X      0.69435     0.61869
             64  C  5  Y      0.76026     0.67617
             65  C  5  Z      0.54475     0.50275
             66  C  5  S      0.48812     0.29982
             67  C  5  X      0.31053     0.39899
             68  C  5  Y      0.20887     0.34819
             69  C  5  Z      0.45869     0.49587
             70  C  5 XX      0.02145     0.16323
             71  C  5 YY      0.02354     0.18296
             72  C  5 ZZ     -0.01564     0.10594
             73  C  5 XY      0.01801     0.03529
             74  C  5 XZ      0.00404     0.00699
             75  C  5 YZ      0.00944     0.01646
             76  C  6  S      1.99660     1.97974
             77  C  6  S      0.66522     0.35115
             78  C  6  X      0.74048     0.65779
             79  C  6  Y      0.71284     0.63559
             80  C  6  Z      0.54609     0.50372
             81  C  6  S      0.48810     0.29975
             82  C  6  X      0.18253     0.33384
             83  C  6  Y      0.33676     0.41436
             84  C  6  Z      0.45875     0.49562
             85  C  6 XX      0.02045     0.17950
             86  C  6 YY      0.02928     0.17554
             87  C  6 ZZ     -0.01540     0.10613
             88  C  6 XY      0.01274     0.02260
             89  C  6 XZ      0.00931     0.01736
             90  C  6 YZ      0.00447     0.00663
             91  H  7  S      0.52949     0.49180
             92  H  7  S      0.28533     0.34754
             93  H  8  S      0.52588     0.49971
             94  H  8  S      0.29958     0.35157
             95  H  9  S      0.52972     0.49975
             96  H  9  S      0.30112     0.34923
             97  H 10  S      0.52967     0.50094
             98  H 10  S      0.30121     0.34942
             99  H 11  S      0.52580     0.49954
            100  H 11  S      0.29973     0.35170
            101  H 12  S      0.52949     0.49165
            102  H 12  S      0.28532     0.34751
            103  H 13  S      0.52972     0.49139
            104  H 13  S      0.28123     0.34664
            105  H 14  S      0.52972     0.49378
            106  H 14  S      0.28122     0.34687

          ----- MULLIKEN ATOMIC OVERLAP POPULATIONS -----
          (OFF-DIAGONAL ELEMENTS NEED TO BE MULTIPLIED BY 2)

             1           2           3           4           5

    1    5.0143939
    2    0.3446453   5.0669901
    3   -0.0431948   0.3483124   5.0670728
    4   -0.0257330  -0.0431916   0.3446137   5.0143961
    5   -0.0543568  -0.0063615  -0.0594939   0.6754185   4.9013634
    6    0.6754297  -0.0594988  -0.0063645  -0.0543389   0.4062153
    7    0.3925710  -0.0363551   0.0028733  -0.0001232   0.0030920
    8   -0.0451114   0.3910596  -0.0393028   0.0010866   0.0032050
    9   -0.0398666   0.4045636  -0.0404135   0.0049525  -0.0003548
   10    0.0049584  -0.0404689   0.4045866  -0.0399138   0.0034123
   11    0.0010766  -0.0392173   0.3909777  -0.0450707  -0.0050751
   12   -0.0001234   0.0028714  -0.0363214   0.3925841  -0.0325497
   13    0.0030226   0.0000119   0.0033570  -0.0347624   0.3888160
   14   -0.0347555   0.0033566   0.0000117   0.0030213  -0.0350924

             6           7           8           9          10

    6    4.9013079
    7   -0.0325196   0.4903569
    8   -0.0050876   0.0012743   0.5477829
    9    0.0034126  -0.0029329  -0.0298685   0.5374281
   10   -0.0003565  -0.0000588  -0.0043932  -0.0015759   0.5375743
   11    0.0032012  -0.0000791   0.0050244  -0.0043762  -0.0298725
   12    0.0030927   0.0000072  -0.0000790  -0.0000587  -0.0029342
   13   -0.0350957  -0.0001012   0.0000042   0.0000036  -0.0000766
   14    0.3888138  -0.0031872  -0.0001367  -0.0000765   0.0000036

            11          12          13          14

   11    0.5477910
   12    0.0012726   0.4903387
   13   -0.0001367  -0.0031889   0.4903697
   14    0.0000043  -0.0001013  -0.0012673   0.4903451

          TOTAL MULLIKEN AND LOWDIN ATOMIC POPULATIONS
       ATOM         MULL.POP.    CHARGE          LOW.POP.     CHARGE
    1 C             6.192956   -0.192956         6.169103   -0.169103
    2 C             6.336718   -0.336718         6.271074   -0.271074
    3 C             6.336714   -0.336714         6.269237   -0.269237
    4 C             6.192939   -0.192939         6.169434   -0.169434
    5 C             6.188238   -0.188238         6.182783   -0.182783
    6 C             6.188211   -0.188211         6.179321   -0.179321
    7 H             0.814817    0.185183         0.839343    0.160657
    8 H             0.825458    0.174542         0.851281    0.148719
    9 H             0.830837    0.169163         0.848983    0.151017
   10 H             0.830885    0.169115         0.850362    0.149638
   11 H             0.825520    0.174480         0.851236    0.148764
   12 H             0.814810    0.185190         0.839164    0.160836
   13 H             0.810956    0.189044         0.838037    0.161963
   14 H             0.810940    0.189060         0.840642    0.159358

          -------------------------------
          BOND ORDER AND VALENCE ANALYSIS     BOND ORDER THRESHOLD=0.050
          -------------------------------

                   BOND                       BOND                       BOND
  ATOM PAIR DIST  ORDER      ATOM PAIR DIST  ORDER      ATOM PAIR DIST  ORDER
    1   2  1.511  0.982        1   4  2.837  0.058        1   6  1.324  1.918
    1   7  1.077  0.947        2   3  1.533  0.982        2   8  1.090  0.944
    2   9  1.085  0.958        3   4  1.511  0.982        3  10  1.085  0.958
    3  11  1.091  0.944        4   5  1.324  1.918        4  12  1.076  0.947
    5   6  1.475  1.057        5  13  1.076  0.945        6  14  1.076  0.945

                       TOTAL       BONDED        FREE
      ATOM            VALENCE     VALENCE     VALENCE
    1 C                 3.840       3.840       0.000
    2 C                 3.806       3.806       0.000
    3 C                 3.806       3.806      -0.000
    4 C                 3.840       3.840      -0.000
    5 C                 3.888       3.888      -0.000
    6 C                 3.888       3.888      -0.000
    7 H                 0.932       0.932      -0.000
    8 H                 0.921       0.921      -0.000
    9 H                 0.927       0.927      -0.000
   10 H                 0.927       0.927      -0.000
   11 H                 0.921       0.921      -0.000
   12 H                 0.932       0.932      -0.000
   13 H                 0.929       0.929      -0.000
   14 H                 0.929       0.929      -0.000

          ---------------------
          ELECTROSTATIC MOMENTS
          ---------------------

 POINT   1           X           Y           Z (BOHR)    CHARGE
                 0.008245    0.015503    0.002580       -0.00 (A.U.)
         DX          DY          DZ         /D/  (DEBYE)
     0.171593    0.298903   -0.005856    0.344705
 ...... END OF PROPERTY EVALUATION ......
 STEP CPU TIME =     0.02 TOTAL CPU TIME =        173.9 (      2.9 MIN)
 TOTAL WALL CLOCK TIME=        176.6 SECONDS, CPU UTILIZATION IS    98.48%
  $VIB   
          IVIB=   0 IATOM=   0 ICOORD=   0 E=     -231.8318976004
 -7.751203056E-05-1.524916610E-05 9.614230268E-06 1.293414641E-04 2.319694555E-05
 -2.764994223E-05 3.803957966E-05-8.444610080E-05-3.948959072E-05-1.609099450E-05
  8.218654927E-05-1.128165853E-05-4.491276280E-05 2.476509739E-05-2.463098135E-05
  7.097147985E-05-9.554134541E-06 3.666555854E-05-2.480499672E-06 2.529972710E-05
 -1.644818415E-05-4.521841001E-05 8.861276294E-06 8.319073065E-05-3.768934334E-05
 -2.203315600E-05-4.159546396E-05 8.314286731E-08 1.286134414E-05-2.981090134E-05
 -1.598648522E-05 3.023722831E-05 6.721053641E-05 6.360758708E-06-5.440338026E-05
  1.600239042E-05 1.114943716E-06-1.388522520E-05-1.078136053E-05-6.020843636E-06
 -7.837007127E-06-1.099536360E-05
  1.715933839E-01 2.989029235E-01-5.856095828E-03
 ......END OF GEOMETRY SEARCH......
 STEP CPU TIME =     0.01 TOTAL CPU TIME =        174.0 (      2.9 MIN)
 TOTAL WALL CLOCK TIME=        176.7 SECONDS, CPU UTILIZATION IS    98.47%
               1126015  WORDS OF DYNAMIC MEMORY USED
 EXECUTION OF GAMESS TERMINATED NORMALLY Tue Dec 20 19:59:06 2022
 DDI: 263640 bytes (0.3 MB / 0 MWords) used by master data server.

 ----------------------------------------
 CPU timing information for all processes
 ========================================
 0: 173.377 + 0.590 = 173.967
 ----------------------------------------
 ddikick.x: exited gracefully.
----- accounting info -----
Files used on the master node chemcompute-node-0.novalocal were:
-rw-r--r--. 1 chemcomp chemcomp     1161 Dec 20 19:56 /scratch/169777/518189.F05
-rw-rw-r--. 1 chemcomp chemcomp 55705600 Dec 20 19:59 /scratch/169777/518189.F10
Tue Dec 20 19:59:09 UTC 2022
0.095u 0.037s 3:00.00 0.0%	0+0k 8+208io 0pf+0w
Finishing Up...
Looking for IR data...
Looking for Raman data...
vibramans not found
Looking for thermodynamics data...
Looking for UV-Vis data...
chemcompute.org
{'UTCtimestamp': '2022-12-20T19:59:11.140153', 'cluster': 'jetstream2', 'clusterJobNumber': '169777', 'status': 'COMPLETE', 'nodeList': 'chemcompute-node-0'}
169777
